/home/tahminaafroz
cn013.cluster.local
tahminaafroz
Fri May 30 05:18:39 CDT 2025
 Entering Gaussian System, Link 0=g16
 Initial command:
 /home/apps/g16/l1.exe "/tmp/2-6-diMe-ph-anion-opt-freq-thf-non-tight-2-512/Gau-1768490.inp" -scrdir="/tmp/2-6-diMe-ph-anion-opt-freq-thf-non-tight-2-512/"
 Entering Link 1 = /home/apps/g16/l1.exe PID=   1768491.
  
 Copyright (c) 1988-2019, Gaussian, Inc.  All Rights Reserved.
  
 This is part of the Gaussian(R) 16 program.  It is based on
 the Gaussian(R) 09 system (copyright 2009, Gaussian, Inc.),
 the Gaussian(R) 03 system (copyright 2003, Gaussian, Inc.),
 the Gaussian(R) 98 system (copyright 1998, Gaussian, Inc.),
 the Gaussian(R) 94 system (copyright 1995, Gaussian, Inc.),
 the Gaussian 92(TM) system (copyright 1992, Gaussian, Inc.),
 the Gaussian 90(TM) system (copyright 1990, Gaussian, Inc.),
 the Gaussian 88(TM) system (copyright 1988, Gaussian, Inc.),
 the Gaussian 86(TM) system (copyright 1986, Carnegie Mellon
 University), and the Gaussian 82(TM) system (copyright 1983,
 Carnegie Mellon University). Gaussian is a federally registered
 trademark of Gaussian, Inc.
  
 This software contains proprietary and confidential information,
 including trade secrets, belonging to Gaussian, Inc.
  
 This software is provided under written license and may be
 used, copied, transmitted, or stored only in accord with that
 written license.
  
 The following legend is applicable only to US Government
 contracts under FAR:
  
                    RESTRICTED RIGHTS LEGEND
  
 Use, reproduction and disclosure by the US Government is
 subject to restrictions as set forth in subparagraphs (a)
 and (c) of the Commercial Computer Software - Restricted
 Rights clause in FAR 52.227-19.
  
 Gaussian, Inc.
 340 Quinnipiac St., Bldg. 40, Wallingford CT 06492
  
  
 ---------------------------------------------------------------
 Warning -- This program may not be used in any manner that
 competes with the business of Gaussian, Inc. or will provide
 assistance to any competitor of Gaussian, Inc.  The licensee
 of this program is prohibited from giving any competitor of
 Gaussian, Inc. access to this program.  By using this program,
 the user acknowledges that Gaussian, Inc. is engaged in the
 business of creating and licensing software in the field of
 computational chemistry and represents and warrants to the
 licensee that it is not a competitor of Gaussian, Inc. and that
 it will not use this program in any manner prohibited above.
 ---------------------------------------------------------------
  

 Cite this work as:
 Gaussian 16, Revision C.01,
 M. J. Frisch, G. W. Trucks, H. B. Schlegel, G. E. Scuseria, 
 M. A. Robb, J. R. Cheeseman, G. Scalmani, V. Barone, 
 G. A. Petersson, H. Nakatsuji, X. Li, M. Caricato, A. V. Marenich, 
 J. Bloino, B. G. Janesko, R. Gomperts, B. Mennucci, H. P. Hratchian, 
 J. V. Ortiz, A. F. Izmaylov, J. L. Sonnenberg, D. Williams-Young, 
 F. Ding, F. Lipparini, F. Egidi, J. Goings, B. Peng, A. Petrone, 
 T. Henderson, D. Ranasinghe, V. G. Zakrzewski, J. Gao, N. Rega, 
 G. Zheng, W. Liang, M. Hada, M. Ehara, K. Toyota, R. Fukuda, 
 J. Hasegawa, M. Ishida, T. Nakajima, Y. Honda, O. Kitao, H. Nakai, 
 T. Vreven, K. Throssell, J. A. Montgomery, Jr., J. E. Peralta, 
 F. Ogliaro, M. J. Bearpark, J. J. Heyd, E. N. Brothers, K. N. Kudin, 
 V. N. Staroverov, T. A. Keith, R. Kobayashi, J. Normand, 
 K. Raghavachari, A. P. Rendell, J. C. Burant, S. S. Iyengar, 
 J. Tomasi, M. Cossi, J. M. Millam, M. Klene, C. Adamo, R. Cammi, 
 J. W. Ochterski, R. L. Martin, K. Morokuma, O. Farkas, 
 J. B. Foresman, and D. J. Fox, Gaussian, Inc., Wallingford CT, 2019.
 
 ******************************************
 Gaussian 16:  AS64L-G16RevC.01  3-Jul-2019
                30-May-2025 
 ******************************************
 %mem=20GB
 %nprocshared=32
 Will use up to   32 processors via shared memory.
 %chk=2-6-diMe-ph-anion-opt-freq-thf-non-tight-2-512.chk
 ----------------------------------------------------------------------
 # opt=calcfc freq 6-311+g(d,p) scrf=(smd,solvent=thf) nosymm scf=(qc,f
 ermi,xqc,maxcycle=512) geom=connectivity int=ultrafine m062x
 ----------------------------------------------------------------------
 1/10=4,18=20,19=15,26=6,38=1,57=2/1,3;
 2/9=110,12=2,15=1,17=6,18=5,40=1/2;
 3/5=4,6=6,7=111,11=2,25=1,30=1,70=32201,71=2,72=20,74=-55,75=-5,140=1/1,2,3;
 4//1;
 5/5=2,7=512,22=13,38=5,53=20/2;
 8/6=4,10=90,11=11/1;
 11/6=1,8=1,9=11,15=111,16=1,31=1/1,2,10;
 10/6=1,13=1,31=1/2;
 6/7=2,8=2,9=2,10=2,28=1/1;
 7/10=1,25=1,30=1/1,2,3,16;
 1/10=4,18=20,19=15,26=6/3(2);
 2/9=110,15=1/2;
 99//99;
 2/9=110,15=1/2;
 3/5=4,6=6,7=111,11=2,25=1,30=1,70=32205,71=1,72=20,74=-55,75=-5/1,2,3;
 4/5=5,16=3,69=1/1;
 5/5=2,7=512,22=13,38=5,53=20/2;
 7/30=1/1,2,3,16;
 1/18=20,19=15,26=6/3(-5);
 2/9=110,15=1/2;
 6/7=2,8=2,9=2,10=2,19=2,28=1/1;
 99/9=1/99;
 ----------------------------------------------
 2-6-diMe-ph-anion-opt-freq-thf-non-tight-2-512
 ----------------------------------------------
 Symbolic Z-matrix:
 Charge = -1 Multiplicity = 1
 C                     6.14414   6.99762   5.07365 
 C                     5.12091   6.08763   5.20747 
 C                     3.8758    6.51417   4.71824 
 H                     3.02357   5.84442   4.78426 
 C                     3.73312   7.77686   4.15146 
 C                     4.8204    8.64411   4.05376 
 H                     4.69718   9.62644   3.60808 
 C                     6.0837    8.26094   4.52404 
 H                     2.76469   8.09      3.77796 
 C                     7.28692   9.16177   4.42985 
 H                     7.72686   9.32693   5.41592 
 H                     8.05665   8.71416   3.79655 
 H                     7.0121    10.12875   4.00658 
 C                     5.30708   4.73943   5.85303 
 H                     6.31576   4.35992   5.68386 
 H                     5.15383   4.80932   6.93362 
 H                     4.58925   4.01883   5.4578 
 

 GradGradGradGradGradGradGradGradGradGradGradGradGradGradGradGradGradGrad
 Berny optimization.
 Initialization pass.
                           ----------------------------
                           !    Initial Parameters    !
                           ! (Angstroms and Degrees)  !
 --------------------------                            --------------------------
 ! Name  Definition              Value          Derivative Info.                !
 --------------------------------------------------------------------------------
 ! R1    R(1,2)                  1.3759         calculate D2E/DX2 analytically  !
 ! R2    R(1,8)                  1.379          calculate D2E/DX2 analytically  !
 ! R3    R(2,3)                  1.4041         calculate D2E/DX2 analytically  !
 ! R4    R(2,14)                 1.5063         calculate D2E/DX2 analytically  !
 ! R5    R(3,4)                  1.0859         calculate D2E/DX2 analytically  !
 ! R6    R(3,5)                  1.3914         calculate D2E/DX2 analytically  !
 ! R7    R(5,6)                  1.3942         calculate D2E/DX2 analytically  !
 ! R8    R(5,9)                  1.0842         calculate D2E/DX2 analytically  !
 ! R9    R(6,7)                  1.0857         calculate D2E/DX2 analytically  !
 ! R10   R(6,8)                  1.4014         calculate D2E/DX2 analytically  !
 ! R11   R(8,10)                 1.506          calculate D2E/DX2 analytically  !
 ! R12   R(10,11)                1.0923         calculate D2E/DX2 analytically  !
 ! R13   R(10,12)                1.0927         calculate D2E/DX2 analytically  !
 ! R14   R(10,13)                1.0908         calculate D2E/DX2 analytically  !
 ! R15   R(14,15)                1.0909         calculate D2E/DX2 analytically  !
 ! R16   R(14,16)                1.0936         calculate D2E/DX2 analytically  !
 ! R17   R(14,17)                1.0912         calculate D2E/DX2 analytically  !
 ! A1    A(2,1,8)              127.7396         calculate D2E/DX2 analytically  !
 ! A2    A(1,2,3)              115.1297         calculate D2E/DX2 analytically  !
 ! A3    A(1,2,14)             122.802          calculate D2E/DX2 analytically  !
 ! A4    A(3,2,14)             122.0594         calculate D2E/DX2 analytically  !
 ! A5    A(2,3,4)              119.1684         calculate D2E/DX2 analytically  !
 ! A6    A(2,3,5)              120.5667         calculate D2E/DX2 analytically  !
 ! A7    A(4,3,5)              120.2647         calculate D2E/DX2 analytically  !
 ! A8    A(3,5,6)              120.8682         calculate D2E/DX2 analytically  !
 ! A9    A(3,5,9)              119.6066         calculate D2E/DX2 analytically  !
 ! A10   A(6,5,9)              119.5249         calculate D2E/DX2 analytically  !
 ! A11   A(5,6,7)              120.2027         calculate D2E/DX2 analytically  !
 ! A12   A(5,6,8)              120.6247         calculate D2E/DX2 analytically  !
 ! A13   A(7,6,8)              119.1724         calculate D2E/DX2 analytically  !
 ! A14   A(1,8,6)              115.0708         calculate D2E/DX2 analytically  !
 ! A15   A(1,8,10)             122.539          calculate D2E/DX2 analytically  !
 ! A16   A(6,8,10)             122.3897         calculate D2E/DX2 analytically  !
 ! A17   A(8,10,11)            110.8406         calculate D2E/DX2 analytically  !
 ! A18   A(8,10,12)            110.7341         calculate D2E/DX2 analytically  !
 ! A19   A(8,10,13)            110.6864         calculate D2E/DX2 analytically  !
 ! A20   A(11,10,12)           107.543          calculate D2E/DX2 analytically  !
 ! A21   A(11,10,13)           108.5264         calculate D2E/DX2 analytically  !
 ! A22   A(12,10,13)           108.4058         calculate D2E/DX2 analytically  !
 ! A23   A(2,14,15)            111.0489         calculate D2E/DX2 analytically  !
 ! A24   A(2,14,16)            110.4222         calculate D2E/DX2 analytically  !
 ! A25   A(2,14,17)            110.7639         calculate D2E/DX2 analytically  !
 ! A26   A(15,14,16)           107.7594         calculate D2E/DX2 analytically  !
 ! A27   A(15,14,17)           108.8051         calculate D2E/DX2 analytically  !
 ! A28   A(16,14,17)           107.9326         calculate D2E/DX2 analytically  !
 ! D1    D(8,1,2,3)              0.1114         calculate D2E/DX2 analytically  !
 ! D2    D(8,1,2,14)          -178.8161         calculate D2E/DX2 analytically  !
 ! D3    D(2,1,8,6)              0.0933         calculate D2E/DX2 analytically  !
 ! D4    D(2,1,8,10)          -179.6566         calculate D2E/DX2 analytically  !
 ! D5    D(1,2,3,4)            179.569          calculate D2E/DX2 analytically  !
 ! D6    D(1,2,3,5)             -0.2262         calculate D2E/DX2 analytically  !
 ! D7    D(14,2,3,4)            -1.4947         calculate D2E/DX2 analytically  !
 ! D8    D(14,2,3,5)           178.7101         calculate D2E/DX2 analytically  !
 ! D9    D(1,2,14,15)          -31.7298         calculate D2E/DX2 analytically  !
 ! D10   D(1,2,14,16)           87.7449         calculate D2E/DX2 analytically  !
 ! D11   D(1,2,14,17)         -152.7474         calculate D2E/DX2 analytically  !
 ! D12   D(3,2,14,15)          149.4159         calculate D2E/DX2 analytically  !
 ! D13   D(3,2,14,16)          -91.1093         calculate D2E/DX2 analytically  !
 ! D14   D(3,2,14,17)           28.3984         calculate D2E/DX2 analytically  !
 ! D15   D(2,3,5,6)              0.1414         calculate D2E/DX2 analytically  !
 ! D16   D(2,3,5,9)            179.9549         calculate D2E/DX2 analytically  !
 ! D17   D(4,3,5,6)           -179.6515         calculate D2E/DX2 analytically  !
 ! D18   D(4,3,5,9)              0.162          calculate D2E/DX2 analytically  !
 ! D19   D(3,5,6,7)            179.9048         calculate D2E/DX2 analytically  !
 ! D20   D(3,5,6,8)              0.0784         calculate D2E/DX2 analytically  !
 ! D21   D(9,5,6,7)              0.0911         calculate D2E/DX2 analytically  !
 ! D22   D(9,5,6,8)           -179.7353         calculate D2E/DX2 analytically  !
 ! D23   D(5,6,8,1)             -0.1872         calculate D2E/DX2 analytically  !
 ! D24   D(5,6,8,10)           179.5632         calculate D2E/DX2 analytically  !
 ! D25   D(7,6,8,1)            179.9847         calculate D2E/DX2 analytically  !
 ! D26   D(7,6,8,10)            -0.265          calculate D2E/DX2 analytically  !
 ! D27   D(1,8,10,11)          -56.8973         calculate D2E/DX2 analytically  !
 ! D28   D(1,8,10,12)           62.3752         calculate D2E/DX2 analytically  !
 ! D29   D(1,8,10,13)         -177.372          calculate D2E/DX2 analytically  !
 ! D30   D(6,8,10,11)          123.371          calculate D2E/DX2 analytically  !
 ! D31   D(6,8,10,12)         -117.3566         calculate D2E/DX2 analytically  !
 ! D32   D(6,8,10,13)            2.8962         calculate D2E/DX2 analytically  !
 --------------------------------------------------------------------------------
 Trust Radius=3.00D-01 FncErr=5.00D-06 GrdErr=5.00D-06 EigMax=2.50D+02 EigMin=1.00D-04
 Number of steps in this run=     87 maximum allowed number of steps=    102.
 GradGradGradGradGradGradGradGradGradGradGradGradGradGradGradGradGradGrad

                          Input orientation:                          
 ---------------------------------------------------------------------
 Center     Atomic      Atomic             Coordinates (Angstroms)
 Number     Number       Type             X           Y           Z
 ---------------------------------------------------------------------
      1          6           0        6.144143    6.997623    5.073654
      2          6           0        5.120914    6.087625    5.207466
      3          6           0        3.875801    6.514173    4.718243
      4          1           0        3.023574    5.844422    4.784263
      5          6           0        3.733117    7.776863    4.151460
      6          6           0        4.820399    8.644107    4.053758
      7          1           0        4.697184    9.626442    3.608079
      8          6           0        6.083701    8.260936    4.524035
      9          1           0        2.764685    8.089999    3.777961
     10          6           0        7.286916    9.161767    4.429852
     11          1           0        7.726861    9.326925    5.415915
     12          1           0        8.056652    8.714159    3.796554
     13          1           0        7.012095   10.128752    4.006581
     14          6           0        5.307075    4.739425    5.853032
     15          1           0        6.315763    4.359923    5.683858
     16          1           0        5.153831    4.809319    6.933617
     17          1           0        4.589250    4.018828    5.457804
 ---------------------------------------------------------------------
                    Distance matrix (angstroms):
                    1          2          3          4          5
     1  C    0.000000
     2  C    1.375863   0.000000
     3  C    2.346362   1.404133   0.000000
     4  H    3.339397   2.153389   1.085917   0.000000
     5  C    2.696424   2.427891   1.391398   2.153653   0.000000
     6  C    2.345932   2.820807   2.422896   3.405944   1.394217
     7  H    3.339504   3.906509   3.404901   4.299774   2.155372
     8  C    1.379019   2.473321   2.822006   3.907894   2.428659
     9  H    3.780588   3.406582   2.145212   2.474325   1.084166
    10  C    2.530599   3.840130   4.327659   5.413545   3.824258
    11  H    2.836862   4.162628   4.819646   5.886231   4.466714
    12  H    2.869699   4.184246   4.813415   5.877315   4.438179
    13  H    3.419935   4.620541   4.838180   5.904962   4.037830
    14  C    2.531318   1.506338   2.546767   2.752755   3.820827
    15  H    2.712796   2.153966   3.395088   3.721763   4.549042
    16  H    3.037903   2.148196   3.073722   3.198305   4.308729
    17  H    3.382083   2.150641   2.698649   2.497557   4.069684
                    6          7          8          9         10
     6  C    0.000000
     7  H    1.085723   0.000000
     8  C    1.401397   2.150816   0.000000
     9  H    2.146872   2.474686   3.406129   0.000000
    10  C    2.548161   2.756437   1.506019   4.692997   0.000000
    11  H    3.281651   3.540752   2.152152   5.369923   1.092314
    12  H    3.247213   3.486231   2.151087   5.328681   1.092663
    13  H    2.647627   2.402068   2.149049   4.716913   1.090754
    14  C    4.326752   5.412459   3.843231   4.689991   5.049982
    15  H    4.821574   5.887689   4.076389   5.491454   5.057012
    16  H    4.807324   5.871320   4.310963   5.140919   5.455520
    17  H    4.839213   5.905799   4.593559   4.767111   5.897788
                   11         12         13         14         15
    11  H    0.000000
    12  H    1.762548   0.000000
    13  H    1.772016   1.770956   0.000000
    14  C    5.204958   5.252408   5.946538   0.000000
    15  H    5.170503   5.054897   6.047936   1.090914   0.000000
    16  H    5.415964   5.789241   6.349571   1.093633   1.764636
    17  H    6.166219   6.068670   6.731077   1.091209   1.774343
                   16         17
    16  H    0.000000
    17  H    1.766820   0.000000
 Symmetry turned off by external request.
 Stoichiometry    C8H9(1-)
 Framework group  C1[X(C8H9)]
 Deg. of freedom    45
 Full point group                 C1      NOp   1
 Rotational constants (GHZ):           3.6946109           1.7577132           1.2089371
 Standard basis: 6-311+G(d,p) (5D, 7F)
   230 basis functions,   360 primitive gaussians,   238 cartesian basis functions
    29 alpha electrons       29 beta electrons
       nuclear repulsion energy       329.1279277573 Hartrees.
 NAtoms=   17 NActive=   17 NUniq=   17 SFac= 1.00D+00 NAtFMM=   60 NAOKFM=F Big=F
 Integral buffers will be    131072 words long.
 Raffenetti 2 integral format.
 Two-electron integral symmetry is turned off.
 Force inversion solution in PCM.
 ------------------------------------------------------------------------------
 Polarizable Continuum Model (PCM)
 =================================
 Model                : PCM.
 Atomic radii         : SMD-Coulomb.
 Polarization charges : Total charges.
 Charge compensation  : None.
 Solution method      : Matrix inversion.
 Cavity type          : VdW (van der Waals Surface) (Alpha=1.000).
 Cavity algorithm     : GePol (No added spheres)
                        Default sphere list used, NSphG=   17.
                        Lebedev-Laikov grids with approx.  5.0 points / Ang**2.
                        Smoothing algorithm: York/Karplus (Gamma=1.0000).
                        Polarization charges: spherical gaussians, with
                                              point-specific exponents (IZeta= 3).
                        Self-potential: point-specific (ISelfS= 7).
                        Self-field    : sphere-specific E.n sum rule (ISelfD= 2).
 1st derivatives      : Analytical E(r).r(x)/FMM algorithm (CHGder, D1EAlg=3).
                        Cavity 1st derivative terms included.
 2nd derivatives      : Analytical E(r).r(xy)/FMM algorithm (CHGder, D2EAlg=3).
                        Cavity 2nd derivative terms included.
 Solvent              : TetraHydroFuran, Eps=   7.425700 Eps(inf)=   1.974025
 ------------------------------------------------------------------------------
 Spheres list:
 ISph  on   Nord     Re0    Alpha      Xe            Ye            Ze
    1   C      1    1.8500  1.000      6.144143      6.997623      5.073654
    2   C      2    1.8500  1.000      5.120914      6.087625      5.207466
    3   C      3    1.8500  1.000      3.875801      6.514173      4.718243
    4   H      4    1.2000  1.000      3.023574      5.844422      4.784263
    5   C      5    1.8500  1.000      3.733117      7.776863      4.151460
    6   C      6    1.8500  1.000      4.820399      8.644107      4.053758
    7   H      7    1.2000  1.000      4.697184      9.626442      3.608079
    8   C      8    1.8500  1.000      6.083701      8.260936      4.524035
    9   H      9    1.2000  1.000      2.764685      8.089999      3.777961
   10   C     10    1.8500  1.000      7.286916      9.161767      4.429852
   11   H     11    1.2000  1.000      7.726861      9.326925      5.415915
   12   H     12    1.2000  1.000      8.056652      8.714159      3.796554
   13   H     13    1.2000  1.000      7.012095     10.128752      4.006581
   14   C     14    1.8500  1.000      5.307075      4.739425      5.853032
   15   H     15    1.2000  1.000      6.315763      4.359923      5.683858
   16   H     16    1.2000  1.000      5.153831      4.809319      6.933617
   17   H     17    1.2000  1.000      4.589250      4.018828      5.457804
 ------------------------------------------------------------------------------
 ------------------------------------------------------------------------------
 Atomic radii for non-electrostatic terms: SMD-CDS.
 ------------------------------------------------------------------------------
 Nuclear repulsion after PCM non-electrostatic terms =      329.1247127801 Hartrees.
 One-electron integrals computed using PRISM.
 NBasis=   230 RedAO= T EigKep=  2.26D-06  NBF=   230
 NBsUse=   230 1.00D-06 EigRej= -1.00D+00 NBFU=   230
 ExpMin= 4.38D-02 ExpMax= 4.56D+03 ExpMxC= 6.82D+02 IAcc=3 IRadAn=         5 AccDes= 0.00D+00
 Harris functional with IExCor= 1009 and IRadAn=       5 diagonalized for initial guess.
 HarFok:  IExCor= 1009 AccDes= 0.00D+00 IRadAn=         5 IDoV= 1 UseB2=F ITyADJ=14
 ICtDFT=  3500011 ScaDFX=  1.000000  1.000000  1.000000  1.000000
 FoFCou: FMM=F IPFlag=           0 FMFlag=      100000 FMFlg1=           0
         NFxFlg=           0 DoJE=T BraDBF=F KetDBF=T FulRan=T
         wScrn=  0.000000 ICntrl=       500 IOpCl=  0 I1Cent=   200000004 NGrid=           0
         NMat0=    1 NMatS0=      1 NMatT0=    0 NMatD0=    1 NMtDS0=    0 NMtDT0=    0
 Symmetry not used in FoFCou.
 Requested convergence on RMS density matrix=1.00D-08 within 512 cycles.
 Requested convergence on MAX density matrix=1.00D-06.
 Requested convergence on             energy=1.00D-06.
 Level shift goal  0.100 maximum shift  0.100.
 No special actions if energy rises.
 Dynamic level shift is on during FON iterations.
 Inv3:  Mode=1 IEnd=     5443227.
 Iteration    1 A*A^-1 deviation from unit magnitude is 6.66D-15 for   1336.
 Iteration    1 A*A^-1 deviation from orthogonality  is 2.50D-15 for    980    761.
 Iteration    1 A^-1*A deviation from unit magnitude is 6.88D-15 for   1336.
 Iteration    1 A^-1*A deviation from orthogonality  is 2.07D-15 for   1175    759.
 Error on total polarization charges =  0.06768
 SCF Done:  E(RM062X) =  -310.241413307     A.U. after   16 cycles
            NFock= 16  Conv=0.52D-08     -V/T= 2.0039
 SMD-CDS (non-electrostatic) energy       (kcal/mol) =      -2.02
 (included in total energy above)
 DoSCS=F DFT=T ScalE2(SS,OS)=  1.000000  1.000000
 Range of M.O.s used for correlation:     1   230
 NBasis=   230 NAE=    29 NBE=    29 NFC=     0 NFV=     0
 NROrb=    230 NOA=    29 NOB=    29 NVA=   201 NVB=   201

 **** Warning!!: The largest alpha MO coefficient is  0.20687189D+03

 Symmetrizing basis deriv contribution to polar:
 IMax=3 JMax=2 DiffMx= 0.00D+00
 G2DrvN: will do    18 centers at a time, making    1 passes.
 Calling FoFCou, ICntrl=  3107 FMM=F I1Cent=   0 AccDes= 0.00D+00.
 NEqPCM:  Using equilibrium solvation (IEInf=0, Eps=   7.4257, EpsInf=   1.9740)
 G2PCM: DoFxE=T DoFxN=T DoGrad=T DoDP/DQ/DG/TGxP=FFFF NFrqRd=   0 IEInf=0 SqF1=F DoCFld=F IF1Alg=4.
 End of G2Drv F.D. properties file   721 does not exist.
 End of G2Drv F.D. properties file   722 does not exist.
 End of G2Drv F.D. properties file   788 does not exist.
          IDoAtm=11111111111111111
 NEqPCM:  Using equilibrium solvation (IEInf=0, Eps=   7.4257, EpsInf=   1.9740)
          Differentiating once with respect to nuclear coordinates.
 Keep R1 ints in memory in canonical form, NReq=386963732.
          There are    54 degrees of freedom in the 1st order CPHF.  IDoFFX=6 NUNeed=     0.
     48 vectors produced by pass  0 Test12= 1.08D-14 1.85D-09 XBig12= 1.53D-01 1.39D-01.
 AX will form    48 AO Fock derivatives at one time.
     48 vectors produced by pass  1 Test12= 1.08D-14 1.85D-09 XBig12= 1.59D-02 2.73D-02.
     48 vectors produced by pass  2 Test12= 1.08D-14 1.85D-09 XBig12= 5.25D-04 4.29D-03.
     48 vectors produced by pass  3 Test12= 1.08D-14 1.85D-09 XBig12= 4.42D-06 3.72D-04.
     48 vectors produced by pass  4 Test12= 1.08D-14 1.85D-09 XBig12= 3.01D-08 2.48D-05.
     48 vectors produced by pass  5 Test12= 1.08D-14 1.85D-09 XBig12= 1.37D-10 1.40D-06.
     37 vectors produced by pass  6 Test12= 1.08D-14 1.85D-09 XBig12= 5.74D-13 9.34D-08.
     10 vectors produced by pass  7 Test12= 1.08D-14 1.85D-09 XBig12= 2.47D-15 5.35D-09.
 InvSVY:  IOpt=1 It=  1 EMax= 2.22D-16
 Solved reduced A of dimension   335 with    54 vectors.
 End of Minotr F.D. properties file   721 does not exist.
 End of Minotr F.D. properties file   722 does not exist.
 End of Minotr F.D. properties file   788 does not exist.

 **********************************************************************

            Population analysis using the SCF Density.

 **********************************************************************

 Alpha  occ. eigenvalues --  -10.49758 -10.49512 -10.49495 -10.49319 -10.49280
 Alpha  occ. eigenvalues --  -10.49091 -10.49024 -10.42956  -0.91187  -0.83415
 Alpha  occ. eigenvalues --   -0.80347  -0.73043  -0.72541  -0.61255  -0.60260
 Alpha  occ. eigenvalues --   -0.51762  -0.48896  -0.45438  -0.45315  -0.44201
 Alpha  occ. eigenvalues --   -0.43005  -0.42502  -0.39550  -0.37895  -0.37312
 Alpha  occ. eigenvalues --   -0.34879  -0.25231  -0.24269  -0.16320
 Alpha virt. eigenvalues --    0.03765   0.04876   0.05613   0.05688   0.06555
 Alpha virt. eigenvalues --    0.06686   0.07220   0.08063   0.08761   0.09353
 Alpha virt. eigenvalues --    0.09894   0.10019   0.11150   0.11218   0.13238
 Alpha virt. eigenvalues --    0.14430   0.14809   0.15024   0.16013   0.17394
 Alpha virt. eigenvalues --    0.18058   0.18172   0.18480   0.20440   0.20596
 Alpha virt. eigenvalues --    0.20661   0.22344   0.23276   0.24221   0.24366
 Alpha virt. eigenvalues --    0.25096   0.25396   0.25873   0.26163   0.26349
 Alpha virt. eigenvalues --    0.26897   0.28797   0.28979   0.29703   0.30287
 Alpha virt. eigenvalues --    0.31567   0.32405   0.33322   0.33402   0.36350
 Alpha virt. eigenvalues --    0.37519   0.40505   0.42742   0.44426   0.45440
 Alpha virt. eigenvalues --    0.48495   0.49946   0.51184   0.52726   0.55166
 Alpha virt. eigenvalues --    0.59052   0.59315   0.60932   0.62561   0.63279
 Alpha virt. eigenvalues --    0.64529   0.65263   0.66724   0.67011   0.67492
 Alpha virt. eigenvalues --    0.70100   0.70304   0.72484   0.73034   0.73594
 Alpha virt. eigenvalues --    0.74928   0.76268   0.77853   0.78283   0.78908
 Alpha virt. eigenvalues --    0.79233   0.80960   0.83125   0.84267   0.85810
 Alpha virt. eigenvalues --    0.87896   0.89940   0.91477   0.95559   0.97196
 Alpha virt. eigenvalues --    0.99843   1.02374   1.02533   1.04151   1.04275
 Alpha virt. eigenvalues --    1.08852   1.09098   1.12006   1.13252   1.17050
 Alpha virt. eigenvalues --    1.18851   1.23304   1.28106   1.35241   1.42593
 Alpha virt. eigenvalues --    1.44727   1.46550   1.47069   1.50221   1.54511
 Alpha virt. eigenvalues --    1.55682   1.57532   1.60232   1.62018   1.62591
 Alpha virt. eigenvalues --    1.63529   1.64843   1.66115   1.68033   1.68754
 Alpha virt. eigenvalues --    1.69245   1.71827   1.75076   1.77731   1.78848
 Alpha virt. eigenvalues --    1.80019   1.82022   1.82620   1.88911   1.89269
 Alpha virt. eigenvalues --    1.91906   1.92469   1.97514   1.99208   2.00320
 Alpha virt. eigenvalues --    2.01741   2.02266   2.05643   2.10028   2.10477
 Alpha virt. eigenvalues --    2.13371   2.16587   2.21653   2.24328   2.26057
 Alpha virt. eigenvalues --    2.28261   2.32757   2.38297   2.41076   2.44557
 Alpha virt. eigenvalues --    2.47351   2.47733   2.50570   2.52999   2.56226
 Alpha virt. eigenvalues --    2.58036   2.60871   2.63701   2.64604   2.65153
 Alpha virt. eigenvalues --    2.68426   2.69099   2.70321   2.75064   2.75570
 Alpha virt. eigenvalues --    2.78844   2.80215   2.81576   2.82220   2.86601
 Alpha virt. eigenvalues --    2.88300   2.93459   2.94998   2.95772   2.98851
 Alpha virt. eigenvalues --    2.99813   3.03405   3.06950   3.21816   3.22412
 Alpha virt. eigenvalues --    3.27987   3.31039   3.34439   3.48468   3.51306
 Alpha virt. eigenvalues --    3.61034   3.70012   3.77725   3.88001   3.89266
 Alpha virt. eigenvalues --    3.90103   3.92605   4.01217   4.13476   4.19540
 Alpha virt. eigenvalues --    4.39880   4.45198   4.88848  23.66104  24.05144
 Alpha virt. eigenvalues --   24.06893  24.09180  24.12428  24.20657  24.25724
 Alpha virt. eigenvalues --   24.33913
          Condensed to atoms (all electrons):
               1          2          3          4          5          6
     1  C   14.744006  -5.300910   1.356044  -0.080902  -1.802893   1.711073
     2  C   -5.300910  11.381161  -2.395244   0.123348   1.661162  -2.811981
     3  C    1.356044  -2.395244   9.057779   0.179770  -0.839988   1.172635
     4  H   -0.080902   0.123348   0.179770   0.521148   0.087569  -0.053527
     5  C   -1.802893   1.661162  -0.839988   0.087569   6.414099  -0.950121
     6  C    1.711073  -2.811981   1.172635  -0.053527  -0.950121  10.437134
     7  H   -0.047669   0.051582  -0.056172   0.000026   0.065277   0.126316
     8  C   -3.455154   3.392120  -1.983057   0.042205   1.458930  -2.984988
     9  H    0.001324  -0.022838   0.029093  -0.006382   0.325474   0.035348
    10  C    0.103528  -0.367223   0.217255  -0.000497  -0.140951   0.115910
    11  H    0.051484   0.010518  -0.009778   0.000003   0.007944  -0.084433
    12  H   -0.007816   0.018400  -0.006902   0.000002   0.005477  -0.062648
    13  H   -0.088444  -0.009072   0.015429  -0.000008   0.013521   0.199050
    14  C    0.129393  -0.684215  -0.041340   0.035513  -0.117624   0.153369
    15  H    0.226383  -0.169310  -0.099666   0.000171  -0.000771  -0.001369
    16  H   -0.092823   0.161350  -0.042440   0.000372   0.007020  -0.012303
    17  H   -0.071586  -0.229045   0.162555  -0.001169   0.010576   0.018254
               7          8          9         10         11         12
     1  C   -0.047669  -3.455154   0.001324   0.103528   0.051484  -0.007816
     2  C    0.051582   3.392120  -0.022838  -0.367223   0.010518   0.018400
     3  C   -0.056172  -1.983057   0.029093   0.217255  -0.009778  -0.006902
     4  H    0.000026   0.042205  -0.006382  -0.000497   0.000003   0.000002
     5  C    0.065277   1.458930   0.325474  -0.140951   0.007944   0.005477
     6  C    0.126316  -2.984988   0.035348   0.115910  -0.084433  -0.062648
     7  H    0.524128   0.166805  -0.006351   0.026262   0.000462   0.000469
     8  C    0.166805   9.962027  -0.024345  -0.793237   0.015867   0.063797
     9  H   -0.006351  -0.024345   0.499067   0.003848   0.000003   0.000004
    10  C    0.026262  -0.793237   0.003848   6.207333   0.366672   0.348879
    11  H    0.000462   0.015867   0.000003   0.366672   0.519620  -0.030410
    12  H    0.000469   0.063797   0.000004   0.348879  -0.030410   0.515102
    13  H   -0.001301  -0.251813   0.000006   0.491900  -0.029523  -0.028466
    14  C   -0.000063  -0.338577   0.003853  -0.031019   0.000731   0.000727
    15  H   -0.000002   0.001918   0.000009   0.001183   0.000018  -0.000032
    16  H    0.000001   0.014905   0.000001   0.000375  -0.000007   0.000005
    17  H   -0.000007   0.006101   0.000005  -0.000883  -0.000002   0.000000
              13         14         15         16         17
     1  C   -0.088444   0.129393   0.226383  -0.092823  -0.071586
     2  C   -0.009072  -0.684215  -0.169310   0.161350  -0.229045
     3  C    0.015429  -0.041340  -0.099666  -0.042440   0.162555
     4  H   -0.000008   0.035513   0.000171   0.000372  -0.001169
     5  C    0.013521  -0.117624  -0.000771   0.007020   0.010576
     6  C    0.199050   0.153369  -0.001369  -0.012303   0.018254
     7  H   -0.001301  -0.000063  -0.000002   0.000001  -0.000007
     8  C   -0.251813  -0.338577   0.001918   0.014905   0.006101
     9  H    0.000006   0.003853   0.000009   0.000001   0.000005
    10  C    0.491900  -0.031019   0.001183   0.000375  -0.000883
    11  H   -0.029523   0.000731   0.000018  -0.000007  -0.000002
    12  H   -0.028466   0.000727  -0.000032   0.000005   0.000000
    13  H    0.537185  -0.000949   0.000002  -0.000001   0.000000
    14  C   -0.000949   6.222582   0.412996   0.325337   0.467416
    15  H    0.000002   0.412996   0.511060  -0.025638  -0.030885
    16  H   -0.000001   0.325337  -0.025638   0.505785  -0.028233
    17  H    0.000000   0.467416  -0.030885  -0.028233   0.544115
 Mulliken charges:
               1
     1  C   -1.375040
     2  C    1.190197
     3  C   -0.715972
     4  H    0.152358
     5  C   -0.204703
     6  C   -1.007723
     7  H    0.150236
     8  C    0.706495
     9  H    0.161881
    10  C   -0.549336
    11  H    0.180831
    12  H    0.183411
    13  H    0.152485
    14  C   -0.538131
    15  H    0.173933
    16  H    0.186295
    17  H    0.152786
 Sum of Mulliken charges =  -1.00000
 Mulliken charges with hydrogens summed into heavy atoms:
               1
     1  C   -1.375040
     2  C    1.190197
     3  C   -0.563615
     5  C   -0.042822
     6  C   -0.857487
     8  C    0.706495
    10  C   -0.032609
    14  C   -0.025118
 APT charges:
               1
     1  C   -3.269103
     2  C    0.604575
     3  C   -0.058574
     4  H   -0.736451
     5  C    0.217018
     6  C   -3.422227
     7  H    1.174287
     8  C    4.877261
     9  H   -0.096541
    10  C   -3.648565
    11  H    1.438437
    12  H    0.104147
    13  H    0.895260
    14  C    0.078097
    15  H    0.606438
    16  H    1.092496
    17  H   -0.856555
 Sum of APT charges =  -1.00000
 APT charges with hydrogens summed into heavy atoms:
               1
     1  C   -3.269103
     2  C    0.604575
     3  C   -0.795025
     5  C    0.120478
     6  C   -2.247939
     8  C    4.877261
    10  C   -1.210721
    14  C    0.920475
 Electronic spatial extent (au):  <R**2>=          22571.7168
 Charge=             -1.0000 electrons
 Dipole moment (field-independent basis, Debye):
    X=            -30.0077    Y=            -33.4616    Z=            -24.5260  Tot=             51.2022
 Quadrupole moment (field-independent basis, Debye-Ang):
   XX=           -246.2981   YY=           -287.1837   ZZ=           -182.3729
   XY=           -206.7304   XZ=           -154.6873   YZ=           -171.6414
 Traceless Quadrupole moment (field-independent basis, Debye-Ang):
   XX=             -7.6798   YY=            -48.5655   ZZ=             56.2453
   XY=           -206.7304   XZ=           -154.6873   YZ=           -171.6414
 Octapole moment (field-independent basis, Debye-Ang**2):
  XXX=          -2135.4660  YYY=          -2797.5383  ZZZ=          -1457.2675  XYY=          -1716.0075
  XXY=          -1704.7135  XXZ=          -1261.2041  XZZ=          -1104.4364  YZZ=          -1292.7268
  YYZ=          -1462.5276  XYZ=          -1068.1464
 Hexadecapole moment (field-independent basis, Debye-Ang**3):
 XXXX=         -18439.5715 YYYY=         -29090.1772 ZZZZ=         -11284.4138 XXXY=         -14988.0463
 XXXZ=         -10851.3424 YYYX=         -16238.5951 YYYZ=         -13951.5745 ZZZX=          -8531.6707
 ZZZY=         -10287.0585 XXYY=         -13607.7973 XXZZ=          -8247.2410 YYZZ=         -10595.7972
 XXYZ=          -8686.2461 YYXZ=          -8787.9038 ZZXY=          -7766.2478
 N-N= 3.291247127801D+02 E-N=-1.388578078962D+03  KE= 3.090500130002D+02
  Exact polarizability:       0.000       0.000       0.000       0.000       0.000       0.000
 Approx polarizability:     147.491       5.363     141.448      10.602     -19.045     106.182
 D2PCM: PCM CHGder 2nd derivatives, FixD1E=F FixD2E=F DoIter=F DoCFld=F I1PDM=0
 Calling FoFJK, ICntrl=    100127 FMM=F ISym2X=0 I1Cent= 0 IOpClX= 0 NMat=1 NMatS=1 NMatT=0.
 -------------------------------------------------------------------
 Center     Atomic                   Forces (Hartrees/Bohr)
 Number     Number              X              Y              Z
 -------------------------------------------------------------------
      1        6           0.071357413   -0.021934004    0.027043457
      2        6          -0.019321676    0.020326140   -0.014213150
      3        6          -0.004727957   -0.011418294    0.003557621
      4        1          -0.005387520    0.000810392   -0.001565364
      5        6          -0.003787767    0.001381435   -0.001429205
      6        6           0.005201237    0.011299750   -0.003585051
      7        1          -0.004647091    0.002446905   -0.002280917
      8        6          -0.031903997   -0.004441946   -0.005720187
      9        1          -0.000975447    0.000288433   -0.000397763
     10        6          -0.003327151    0.001399213   -0.001014748
     11        1           0.000394156   -0.000499674    0.000400938
     12        1           0.000705145   -0.000546246    0.000127493
     13        1           0.001053704    0.002977089   -0.000995759
     14        6          -0.003689937    0.000401200   -0.001825990
     15        1           0.000302936    0.001064744   -0.000215161
     16        1           0.000266854   -0.000777889    0.001393632
     17        1          -0.001512903   -0.002777249    0.000720154
 -------------------------------------------------------------------
 Cartesian Forces:  Max     0.071357413 RMS     0.013164455
 FormGI is forming the generalized inverse of G from B-inverse, IUseBI=4.

 GradGradGradGradGradGradGradGradGradGradGradGradGradGradGradGradGradGrad
 Berny optimization.
 Internal  Forces:  Max     0.049726443 RMS     0.008813372
 Search for a local minimum.
 Step number   1 out of a maximum of   87
 All quantities printed in internal units (Hartrees-Bohrs-Radians)
 Mixed Optimization -- RFO/linear search
 Second derivative matrix not updated -- analytic derivatives used.
 ITU=  0
     Eigenvalues ---   -0.00004   0.00029   0.00786   0.01786   0.01953
     Eigenvalues ---    0.02262   0.02490   0.02504   0.02607   0.02905
     Eigenvalues ---    0.05616   0.05621   0.05683   0.05743   0.10634
     Eigenvalues ---    0.11513   0.11844   0.11952   0.12104   0.13420
     Eigenvalues ---    0.14028   0.14163   0.14252   0.18223   0.18499
     Eigenvalues ---    0.18930   0.19300   0.20078   0.28912   0.31617
     Eigenvalues ---    0.31834   0.33781   0.33834   0.34346   0.34458
     Eigenvalues ---    0.34859   0.34919   0.35617   0.35766   0.36187
     Eigenvalues ---    0.42730   0.42960   0.46240   0.50282   0.52455
 RFO step:  Lambda=-2.43165586D-02 EMin=-3.73694584D-05
 Linear search not attempted -- first point.
 Maximum step size (   0.300) exceeded in Quadratic search.
    -- Step size scaled by   0.923
 Iteration  1 RMS(Cart)=  0.05373176 RMS(Int)=  0.00230381
 Iteration  2 RMS(Cart)=  0.00613019 RMS(Int)=  0.00072071
 Iteration  3 RMS(Cart)=  0.00000493 RMS(Int)=  0.00072070
 Iteration  4 RMS(Cart)=  0.00000000 RMS(Int)=  0.00072070
 Variable       Old X    -DE/DX   Delta X   Delta X   Delta X     New X
                                 (Linear)    (Quad)   (Total)
    R1        2.60000   0.02354   0.00000   0.05618   0.05739   2.65740
    R2        2.60597   0.02271   0.00000   0.05687   0.05808   2.66405
    R3        2.65343   0.00779   0.00000  -0.00075  -0.00075   2.65268
    R4        2.84657   0.00134   0.00000   0.01595   0.01595   2.86252
    R5        2.05209   0.00364   0.00000   0.00397   0.00397   2.05606
    R6        2.62936  -0.00175   0.00000  -0.00380  -0.00503   2.62433
    R7        2.63469  -0.00196   0.00000  -0.00329  -0.00452   2.63016
    R8        2.04878   0.00109   0.00000   0.00262   0.00262   2.05140
    R9        2.05172   0.00367   0.00000   0.00376   0.00376   2.05548
   R10        2.64826   0.00773   0.00000  -0.00196  -0.00196   2.64629
   R11        2.84596   0.00114   0.00000   0.01481   0.01481   2.86077
   R12        2.06417   0.00042   0.00000   0.00241   0.00241   2.06658
   R13        2.06483   0.00065   0.00000   0.00260   0.00260   2.06743
   R14        2.06123   0.00277   0.00000   0.00542   0.00542   2.06665
   R15        2.06153  -0.00005   0.00000   0.00079   0.00079   2.06232
   R16        2.06667   0.00130   0.00000   0.00384   0.00384   2.07050
   R17        2.06209   0.00255   0.00000   0.00528   0.00528   2.06737
    A1        2.22948  -0.04973   0.00000  -0.19924  -0.19566   2.03382
    A2        2.00939   0.02600   0.00000   0.11465   0.11569   2.12508
    A3        2.14330  -0.00878   0.00000  -0.04243  -0.04296   2.10034
    A4        2.13034  -0.01723   0.00000  -0.07228  -0.07281   2.05753
    A5        2.07988   0.00410   0.00000   0.01142   0.01215   2.09203
    A6        2.10429   0.00069   0.00000  -0.00060  -0.00206   2.10222
    A7        2.09901  -0.00479   0.00000  -0.01082  -0.01008   2.08893
    A8        2.10955  -0.00380   0.00000  -0.02885  -0.03158   2.07796
    A9        2.08753   0.00186   0.00000   0.01435   0.01572   2.10325
   A10        2.08610   0.00194   0.00000   0.01450   0.01587   2.10197
   A11        2.09793  -0.00465   0.00000  -0.01065  -0.00992   2.08802
   A12        2.10530   0.00026   0.00000  -0.00196  -0.00342   2.10187
   A13        2.07995   0.00439   0.00000   0.01261   0.01334   2.09329
   A14        2.00836   0.02659   0.00000   0.11599   0.11704   2.12540
   A15        2.13871  -0.01033   0.00000  -0.04892  -0.04944   2.08927
   A16        2.13610  -0.01626   0.00000  -0.06707  -0.06759   2.06851
   A17        1.93453  -0.00085   0.00000  -0.00198  -0.00201   1.93253
   A18        1.93267  -0.00059   0.00000   0.00046   0.00042   1.93309
   A19        1.93184   0.00303   0.00000   0.01941   0.01936   1.95120
   A20        1.87698  -0.00036   0.00000  -0.01002  -0.01004   1.86694
   A21        1.89414  -0.00061   0.00000  -0.00448  -0.00451   1.88963
   A22        1.89204  -0.00073   0.00000  -0.00438  -0.00444   1.88760
   A23        1.93817  -0.00231   0.00000  -0.00360  -0.00360   1.93457
   A24        1.92723   0.00101   0.00000   0.00669   0.00665   1.93388
   A25        1.93319   0.00299   0.00000   0.01623   0.01619   1.94938
   A26        1.88076  -0.00023   0.00000  -0.00866  -0.00866   1.87210
   A27        1.89901   0.00000   0.00000  -0.00301  -0.00302   1.89599
   A28        1.88378  -0.00153   0.00000  -0.00859  -0.00866   1.87512
    D1        0.00194  -0.00011   0.00000   0.00091   0.00079   0.00274
    D2       -3.12093   0.00020   0.00000   0.00566   0.00578  -3.11515
    D3        0.00163  -0.00007   0.00000  -0.00062  -0.00053   0.00110
    D4       -3.13560  -0.00004   0.00000  -0.00085  -0.00078  -3.13638
    D5        3.13407   0.00013   0.00000   0.00100   0.00106   3.13513
    D6       -0.00395   0.00017   0.00000  -0.00077  -0.00072  -0.00467
    D7       -0.02609  -0.00009   0.00000  -0.00338  -0.00352  -0.02961
    D8        3.11908  -0.00004   0.00000  -0.00515  -0.00529   3.11378
    D9       -0.55379   0.00036   0.00000  -0.00171  -0.00156  -0.55535
   D10        1.53144  -0.00076   0.00000  -0.01050  -0.01039   1.52105
   D11       -2.66594  -0.00010   0.00000  -0.00646  -0.00629  -2.67224
   D12        2.60780   0.00024   0.00000   0.00138   0.00124   2.60904
   D13       -1.59016  -0.00088   0.00000  -0.00741  -0.00758  -1.59774
   D14        0.49565  -0.00022   0.00000  -0.00337  -0.00349   0.49215
   D15        0.00247  -0.00012   0.00000   0.00020   0.00012   0.00259
   D16        3.14081  -0.00012   0.00000   0.00047   0.00043   3.14123
   D17       -3.13551  -0.00010   0.00000  -0.00164  -0.00170  -3.13721
   D18        0.00283  -0.00009   0.00000  -0.00137  -0.00139   0.00144
   D19        3.13993  -0.00002   0.00000   0.00012   0.00015   3.14008
   D20        0.00137  -0.00012   0.00000  -0.00016  -0.00017   0.00120
   D21        0.00159  -0.00003   0.00000  -0.00015  -0.00015   0.00144
   D22       -3.13697  -0.00013   0.00000  -0.00043  -0.00048  -3.13745
   D23       -0.00327   0.00016   0.00000   0.00012   0.00017  -0.00310
   D24        3.13397   0.00014   0.00000   0.00040   0.00046   3.13443
   D25        3.14133   0.00008   0.00000  -0.00012  -0.00012   3.14121
   D26       -0.00462   0.00006   0.00000   0.00016   0.00018  -0.00445
   D27       -0.99305   0.00068   0.00000   0.00629   0.00629  -0.98675
   D28        1.08865  -0.00070   0.00000  -0.00723  -0.00725   1.08140
   D29       -3.09573  -0.00001   0.00000   0.00035   0.00036  -3.09536
   D30        2.15323   0.00061   0.00000   0.00558   0.00559   2.15882
   D31       -2.04826  -0.00077   0.00000  -0.00794  -0.00796  -2.05622
   D32        0.05055  -0.00008   0.00000  -0.00036  -0.00035   0.05020
         Item               Value     Threshold  Converged?
 Maximum Force            0.049726     0.000450     NO 
 RMS     Force            0.008813     0.000300     NO 
 Maximum Displacement     0.275789     0.001800     NO 
 RMS     Displacement     0.051792     0.001200     NO 
 Predicted change in Energy=-1.318320D-02
 GradGradGradGradGradGradGradGradGradGradGradGradGradGradGradGradGradGrad

                          Input orientation:                          
 ---------------------------------------------------------------------
 Center     Atomic      Atomic             Coordinates (Angstroms)
 Number     Number       Type             X           Y           Z
 ---------------------------------------------------------------------
      1          6           0        6.290084    6.951893    5.124026
      2          6           0        5.163988    6.113226    5.201727
      3          6           0        3.908017    6.516313    4.721583
      4          1           0        3.058588    5.840063    4.791880
      5          6           0        3.741548    7.773053    4.154595
      6          6           0        4.838183    8.625578    4.066490
      7          1           0        4.718703    9.611482    3.622830
      8          6           0        6.091529    8.220352    4.541798
      9          1           0        2.770773    8.085626    3.782682
     10          6           0        7.256685    9.178614    4.415701
     11          1           0        7.710467    9.366824    5.392734
     12          1           0        8.038136    8.756914    3.776625
     13          1           0        6.949236   10.137918    3.989996
     14          6           0        5.271810    4.744792    5.842285
     15          1           0        6.265724    4.321201    5.688300
     16          1           0        5.109120    4.807561    6.923983
     17          1           0        4.529369    4.049878    5.438898
 ---------------------------------------------------------------------
                    Distance matrix (angstroms):
                    1          2          3          4          5
     1  C    0.000000
     2  C    1.406233   0.000000
     3  C    2.454778   1.403738   0.000000
     4  H    3.433519   2.162244   1.088019   0.000000
     5  C    2.847655   2.423808   1.388734   2.146862   0.000000
     6  C    2.455122   2.776117   2.396530   3.384116   1.391823
     7  H    3.434566   3.863804   3.382977   4.283253   2.148819
     8  C    1.409753   2.394957   2.775571   3.863554   2.423306
     9  H    3.933206   3.410502   2.153509   2.478683   1.085553
    10  C    2.528701   3.793919   4.288938   5.376937   3.794729
    11  H    2.814531   4.136053   4.799425   5.868479   4.452573
    12  H    2.851189   4.157009   4.792820   5.859578   4.423971
    13  H    3.445469   4.566568   4.785420   5.852496   3.988601
    14  C    2.534576   1.514778   2.500838   2.683527   3.789507
    15  H    2.690638   2.159150   3.363308   3.660086   4.543016
    16  H    3.038532   2.161929   3.035300   3.133146   4.281811
    17  H    3.408952   2.171727   2.642711   2.405533   4.016483
                    6          7          8          9         10
     6  C    0.000000
     7  H    1.087711   0.000000
     8  C    1.400358   2.159721   0.000000
     9  H    2.155523   2.479561   3.409081   0.000000
    10  C    2.505384   2.693951   1.513855   4.660338   0.000000
    11  H    3.249366   3.484690   2.158576   5.351104   1.093587
    12  H    3.215738   3.431119   2.159321   5.309970   1.094037
    13  H    2.597993   2.321039   2.171912   4.659875   1.093624
    14  C    4.289753   5.377413   3.800359   4.653850   5.062969
    15  H    4.816202   5.886128   4.067946   5.478773   5.118200
    16  H    4.776602   5.841890   4.276339   5.106990   5.478103
    17  H    4.787056   5.853664   4.542906   4.703506   5.898231
                   11         12         13         14         15
    11  H    0.000000
    12  H    1.758171   0.000000
    13  H    1.772493   1.771554   0.000000
    14  C    5.245220   5.293074   5.943950   0.000000
    15  H    5.256705   5.145045   6.098001   1.091332   0.000000
    16  H    5.467962   5.838012   6.356650   1.095664   1.761020
    17  H    6.196082   6.101704   6.709643   1.094004   1.775035
                   16         17
    16  H    0.000000
    17  H    1.765128   0.000000
 Symmetry turned off by external request.
 Stoichiometry    C8H9(1-)
 Framework group  C1[X(C8H9)]
 Deg. of freedom    45
 Full point group                 C1      NOp   1
 Rotational constants (GHZ):           3.7031505           1.7685035           1.2148864
 Standard basis: 6-311+G(d,p) (5D, 7F)
   230 basis functions,   360 primitive gaussians,   238 cartesian basis functions
    29 alpha electrons       29 beta electrons
       nuclear repulsion energy       328.5810621028 Hartrees.
 NAtoms=   17 NActive=   17 NUniq=   17 SFac= 1.00D+00 NAtFMM=   60 NAOKFM=F Big=F
 Integral buffers will be    131072 words long.
 Raffenetti 2 integral format.
 Two-electron integral symmetry is turned off.
 ------------------------------------------------------------------------------
 Polarizable Continuum Model (PCM)
 =================================
 Model                : PCM.
 Atomic radii         : SMD-Coulomb.
 Polarization charges : Total charges.
 Charge compensation  : None.
 Solution method      : Matrix inversion.
 Cavity type          : VdW (van der Waals Surface) (Alpha=1.000).
 Cavity algorithm     : GePol (No added spheres)
                        Default sphere list used, NSphG=   17.
                        Lebedev-Laikov grids with approx.  5.0 points / Ang**2.
                        Smoothing algorithm: York/Karplus (Gamma=1.0000).
                        Polarization charges: spherical gaussians, with
                                              point-specific exponents (IZeta= 3).
                        Self-potential: point-specific (ISelfS= 7).
                        Self-field    : sphere-specific E.n sum rule (ISelfD= 2).
 1st derivatives      : Analytical E(r).r(x)/FMM algorithm (CHGder, D1EAlg=3).
                        Cavity 1st derivative terms included.
 Solvent              : TetraHydroFuran, Eps=   7.425700 Eps(inf)=   1.974025
 ------------------------------------------------------------------------------
 Spheres list:
 ISph  on   Nord     Re0    Alpha      Xe            Ye            Ze
    1   C      1    1.8500  1.000      6.290084      6.951893      5.124026
    2   C      2    1.8500  1.000      5.163988      6.113226      5.201727
    3   C      3    1.8500  1.000      3.908017      6.516313      4.721583
    4   H      4    1.2000  1.000      3.058588      5.840063      4.791880
    5   C      5    1.8500  1.000      3.741548      7.773053      4.154595
    6   C      6    1.8500  1.000      4.838183      8.625578      4.066490
    7   H      7    1.2000  1.000      4.718703      9.611482      3.622830
    8   C      8    1.8500  1.000      6.091529      8.220352      4.541798
    9   H      9    1.2000  1.000      2.770773      8.085626      3.782682
   10   C     10    1.8500  1.000      7.256685      9.178614      4.415701
   11   H     11    1.2000  1.000      7.710467      9.366824      5.392734
   12   H     12    1.2000  1.000      8.038136      8.756914      3.776625
   13   H     13    1.2000  1.000      6.949236     10.137918      3.989996
   14   C     14    1.8500  1.000      5.271810      4.744792      5.842285
   15   H     15    1.2000  1.000      6.265724      4.321201      5.688300
   16   H     16    1.2000  1.000      5.109120      4.807561      6.923983
   17   H     17    1.2000  1.000      4.529369      4.049878      5.438898
 ------------------------------------------------------------------------------
 ------------------------------------------------------------------------------
 Atomic radii for non-electrostatic terms: SMD-CDS.
 ------------------------------------------------------------------------------
 Nuclear repulsion after PCM non-electrostatic terms =      328.5779083725 Hartrees.
 One-electron integrals computed using PRISM.
 NBasis=   230 RedAO= T EigKep=  3.22D-06  NBF=   230
 NBsUse=   230 1.00D-06 EigRej= -1.00D+00 NBFU=   230
 Initial guess from the checkpoint file:  "2-6-diMe-ph-anion-opt-freq-thf-non-tight-2-512.chk"
 B after Tr=     0.036369   -0.011832    0.007117
         Rot=    1.000000   -0.000092   -0.000013   -0.000187 Ang=  -0.02 deg.
 ExpMin= 4.38D-02 ExpMax= 4.56D+03 ExpMxC= 6.82D+02 IAcc=3 IRadAn=         5 AccDes= 0.00D+00
 Harris functional with IExCor= 1009 and IRadAn=       5 diagonalized for initial guess.
 HarFok:  IExCor= 1009 AccDes= 0.00D+00 IRadAn=         5 IDoV= 1 UseB2=F ITyADJ=14
 ICtDFT=  3500011 ScaDFX=  1.000000  1.000000  1.000000  1.000000
 FoFCou: FMM=F IPFlag=           0 FMFlag=      100000 FMFlg1=           0
         NFxFlg=           0 DoJE=T BraDBF=F KetDBF=T FulRan=T
         wScrn=  0.000000 ICntrl=       500 IOpCl=  0 I1Cent=   200000004 NGrid=           0
         NMat0=    1 NMatS0=      1 NMatT0=    0 NMatD0=    1 NMtDS0=    0 NMtDT0=    0
 Symmetry not used in FoFCou.
 Requested convergence on RMS density matrix=1.00D-08 within 512 cycles.
 Requested convergence on MAX density matrix=1.00D-06.
 Requested convergence on             energy=1.00D-06.
 Level shift goal  0.100 maximum shift  0.100.
 No special actions if energy rises.
 Dynamic level shift is on during FON iterations.
 Inv3:  Mode=1 IEnd=     5491827.
 Iteration    1 A*A^-1 deviation from unit magnitude is 6.00D-15 for   1353.
 Iteration    1 A*A^-1 deviation from orthogonality  is 2.54D-15 for   1345   1092.
 Iteration    1 A^-1*A deviation from unit magnitude is 6.00D-15 for   1353.
 Iteration    1 A^-1*A deviation from orthogonality  is 1.73D-15 for   1241   1195.
 Error on total polarization charges =  0.06445
 SCF Done:  E(RM062X) =  -310.254285091     A.U. after   14 cycles
            NFock= 14  Conv=0.96D-08     -V/T= 2.0043
 SMD-CDS (non-electrostatic) energy       (kcal/mol) =      -1.98
 (included in total energy above)
 D1PCM: PCM CHGder 1st derivatives, ID1Alg=3 FixD1E=F DoIter=F DoCFld=F I1PDM=0.
 Calling FoFJK, ICntrl=      2127 FMM=F ISym2X=0 I1Cent= 0 IOpClX= 0 NMat=1 NMatS=1 NMatT=0.
 -------------------------------------------------------------------
 Center     Atomic                   Forces (Hartrees/Bohr)
 Number     Number              X              Y              Z
 -------------------------------------------------------------------
      1        6           0.011029311   -0.003309009    0.004146435
      2        6          -0.002520145    0.003201283   -0.002208089
      3        6          -0.001293121   -0.003159029    0.000898707
      4        1          -0.000953328    0.000155757   -0.000240826
      5        6          -0.002041780    0.000691617   -0.000722540
      6        6           0.001368602    0.003280259   -0.001062425
      7        1          -0.000844667    0.000396325   -0.000464290
      8        6          -0.004854380   -0.001231966   -0.000551540
      9        1          -0.000116987    0.000018603   -0.000082136
     10        6          -0.000401834    0.000835408   -0.000179305
     11        1           0.000231795   -0.000128642    0.000033577
     12        1           0.000284207   -0.000133539    0.000121716
     13        1           0.000479575    0.000600018   -0.000194552
     14        6          -0.000651403   -0.000688992   -0.000252644
     15        1           0.000310786    0.000244094   -0.000022269
     16        1           0.000234122   -0.000137850    0.000354637
     17        1          -0.000260753   -0.000634338    0.000425543
 -------------------------------------------------------------------
 Cartesian Forces:  Max     0.011029311 RMS     0.002141162

 GradGradGradGradGradGradGradGradGradGradGradGradGradGradGradGradGradGrad
 Berny optimization.
 Using GEDIIS/GDIIS optimizer.
 FormGI is forming the generalized inverse of G from B-inverse, IUseBI=4.
 Internal  Forces:  Max     0.006251279 RMS     0.001378588
 Search for a local minimum.
 Step number   2 out of a maximum of   87
 All quantities printed in internal units (Hartrees-Bohrs-Radians)
 Mixed Optimization -- RFO/linear search
 Update second derivatives using D2CorX and points    1    2
 DE= -1.29D-02 DEPred=-1.32D-02 R= 9.76D-01
 TightC=F SS=  1.41D+00  RLast= 3.01D-01 DXNew= 5.0454D-01 9.0183D-01
 Trust test= 9.76D-01 RLast= 3.01D-01 DXMaxT set to 5.05D-01
 ITU=  1  0
 Use linear search instead of GDIIS.
     Eigenvalues ---   -0.00004   0.00029   0.00785   0.01786   0.01951
     Eigenvalues ---    0.02255   0.02483   0.02498   0.02605   0.02904
     Eigenvalues ---    0.05615   0.05619   0.05682   0.05742   0.10633
     Eigenvalues ---    0.11557   0.11845   0.11951   0.12104   0.13404
     Eigenvalues ---    0.14010   0.14161   0.14249   0.18222   0.18625
     Eigenvalues ---    0.18907   0.20038   0.20074   0.28907   0.31623
     Eigenvalues ---    0.32035   0.33783   0.33834   0.34352   0.34459
     Eigenvalues ---    0.34863   0.34920   0.35607   0.35765   0.36186
     Eigenvalues ---    0.42823   0.42942   0.46102   0.50255   0.51783
 RFO step:  Lambda=-3.46121117D-04 EMin=-3.73690567D-05
 Quartic linear search produced a step of  0.16276.
 Iteration  1 RMS(Cart)=  0.07822513 RMS(Int)=  0.04999308
 Iteration  2 RMS(Cart)=  0.06616974 RMS(Int)=  0.00510456
 Iteration  3 RMS(Cart)=  0.00527208 RMS(Int)=  0.00013349
 Iteration  4 RMS(Cart)=  0.00002450 RMS(Int)=  0.00013210
 Iteration  5 RMS(Cart)=  0.00000000 RMS(Int)=  0.00013210
 Variable       Old X    -DE/DX   Delta X   Delta X   Delta X     New X
                                 (Linear)    (Quad)   (Total)
    R1        2.65740   0.00440   0.00934   0.00392   0.01347   2.67087
    R2        2.66405   0.00426   0.00945  -0.00208   0.00759   2.67164
    R3        2.65268   0.00224  -0.00012  -0.00147  -0.00159   2.65109
    R4        2.86252   0.00128   0.00260   0.00223   0.00483   2.86734
    R5        2.05606   0.00063   0.00065  -0.00027   0.00038   2.05644
    R6        2.62433   0.00169  -0.00082   0.00864   0.00760   2.63193
    R7        2.63016   0.00156  -0.00074   0.00193   0.00098   2.63114
    R8        2.05140   0.00014   0.00043  -0.00010   0.00033   2.05172
    R9        2.05548   0.00064   0.00061   0.00028   0.00089   2.05637
   R10        2.64629   0.00220  -0.00032   0.00581   0.00549   2.65179
   R11        2.86077   0.00123   0.00241   0.00389   0.00630   2.86707
   R12        2.06658   0.00011   0.00039   0.00062   0.00101   2.06759
   R13        2.06743   0.00020   0.00042   0.00009   0.00051   2.06794
   R14        2.06665   0.00045   0.00088   0.00012   0.00101   2.06765
   R15        2.06232   0.00018   0.00013   0.00302   0.00315   2.06547
   R16        2.07050   0.00030   0.00062  -0.00090  -0.00028   2.07023
   R17        2.06737   0.00044   0.00086  -0.00049   0.00037   2.06774
    A1        2.03382  -0.00625  -0.03184   0.00282  -0.02838   2.00543
    A2        2.12508   0.00363   0.01883   0.00059   0.01959   2.14468
    A3        2.10034  -0.00189  -0.00699  -0.01999  -0.02707   2.07327
    A4        2.05753  -0.00174  -0.01185   0.01938   0.00744   2.06497
    A5        2.09203   0.00093   0.00198   0.00437   0.00649   2.09852
    A6        2.10222  -0.00025  -0.00034  -0.00291  -0.00353   2.09870
    A7        2.08893  -0.00069  -0.00164  -0.00146  -0.00297   2.08596
    A8        2.07796  -0.00058  -0.00514   0.00217  -0.00346   2.07450
    A9        2.10325   0.00031   0.00256  -0.00144   0.00136   2.10461
   A10        2.10197   0.00027   0.00258  -0.00073   0.00210   2.10407
   A11        2.08802  -0.00059  -0.00161  -0.00116  -0.00264   2.08537
   A12        2.10187  -0.00046  -0.00056  -0.00169  -0.00251   2.09936
   A13        2.09329   0.00105   0.00217   0.00285   0.00515   2.09845
   A14        2.12540   0.00391   0.01905  -0.00095   0.01828   2.14368
   A15        2.08927  -0.00212  -0.00805  -0.00328  -0.01142   2.07784
   A16        2.06851  -0.00179  -0.01100   0.00424  -0.00685   2.06165
   A17        1.93253  -0.00015  -0.00033  -0.00123  -0.00157   1.93096
   A18        1.93309  -0.00017   0.00007  -0.00171  -0.00166   1.93143
   A19        1.95120   0.00107   0.00315   0.00615   0.00928   1.96048
   A20        1.86694  -0.00026  -0.00163  -0.00335  -0.00500   1.86194
   A21        1.88963  -0.00025  -0.00073  -0.00157  -0.00231   1.88732
   A22        1.88760  -0.00028  -0.00072   0.00136   0.00062   1.88822
   A23        1.93457  -0.00065  -0.00059  -0.00223  -0.00289   1.93168
   A24        1.93388   0.00013   0.00108  -0.00938  -0.00836   1.92552
   A25        1.94938   0.00102   0.00263   0.01134   0.01394   1.96332
   A26        1.87210  -0.00011  -0.00141  -0.01310  -0.01461   1.85749
   A27        1.89599  -0.00001  -0.00049   0.00452   0.00399   1.89998
   A28        1.87512  -0.00042  -0.00141   0.00841   0.00699   1.88211
    D1        0.00274  -0.00001   0.00013  -0.00137  -0.00130   0.00144
    D2       -3.11515   0.00008   0.00094  -0.00080   0.00013  -3.11502
    D3        0.00110  -0.00006  -0.00009  -0.00617  -0.00625  -0.00514
    D4       -3.13638  -0.00005  -0.00013  -0.00891  -0.00903   3.13778
    D5        3.13513   0.00006   0.00017   0.00510   0.00531   3.14044
    D6       -0.00467   0.00007  -0.00012   0.00706   0.00695   0.00229
    D7       -0.02961  -0.00003  -0.00057   0.00403   0.00343  -0.02618
    D8        3.11378  -0.00002  -0.00086   0.00599   0.00507   3.11886
    D9       -0.55535   0.00011  -0.00025  -0.36191  -0.36217  -0.91752
   D10        1.52105  -0.00036  -0.00169  -0.38577  -0.38740   1.13365
   D11       -2.67224  -0.00013  -0.00102  -0.37393  -0.37493  -3.04717
   D12        2.60904   0.00012   0.00020  -0.36114  -0.36099   2.24805
   D13       -1.59774  -0.00035  -0.00123  -0.38499  -0.38622  -1.98396
   D14        0.49215  -0.00012  -0.00057  -0.37315  -0.37376   0.11840
   D15        0.00259  -0.00005   0.00002  -0.00507  -0.00502  -0.00243
   D16        3.14123  -0.00005   0.00007  -0.00476  -0.00464   3.13659
   D17       -3.13721  -0.00004  -0.00028  -0.00312  -0.00340  -3.14061
   D18        0.00144  -0.00004  -0.00023  -0.00281  -0.00302  -0.00158
   D19        3.14008  -0.00001   0.00002  -0.00151  -0.00144   3.13865
   D20        0.00120  -0.00004  -0.00003  -0.00238  -0.00235  -0.00115
   D21        0.00144  -0.00001  -0.00003  -0.00182  -0.00182  -0.00038
   D22       -3.13745  -0.00004  -0.00008  -0.00269  -0.00272  -3.14018
   D23       -0.00310   0.00009   0.00003   0.00821   0.00827   0.00517
   D24        3.13443   0.00007   0.00008   0.01090   0.01102  -3.13774
   D25        3.14121   0.00006  -0.00002   0.00735   0.00737  -3.13461
   D26       -0.00445   0.00005   0.00003   0.01004   0.01011   0.00567
   D27       -0.98675   0.00025   0.00102  -0.03712  -0.03612  -1.02287
   D28        1.08140  -0.00029  -0.00118  -0.04316  -0.04436   1.03704
   D29       -3.09536  -0.00004   0.00006  -0.03844  -0.03840  -3.13376
   D30        2.15882   0.00025   0.00091  -0.03975  -0.03883   2.11999
   D31       -2.05622  -0.00029  -0.00130  -0.04580  -0.04707  -2.10329
   D32        0.05020  -0.00005  -0.00006  -0.04108  -0.04111   0.00909
         Item               Value     Threshold  Converged?
 Maximum Force            0.006251     0.000450     NO 
 RMS     Force            0.001379     0.000300     NO 
 Maximum Displacement     0.709728     0.001800     NO 
 RMS     Displacement     0.140728     0.001200     NO 
 Predicted change in Energy=-5.938264D-04
 GradGradGradGradGradGradGradGradGradGradGradGradGradGradGradGradGradGrad

                          Input orientation:                          
 ---------------------------------------------------------------------
 Center     Atomic      Atomic             Coordinates (Angstroms)
 Number     Number       Type             X           Y           Z
 ---------------------------------------------------------------------
      1          6           0        6.294298    6.949939    5.147340
      2          6           0        5.154207    6.115847    5.192935
      3          6           0        3.904566    6.505789    4.688495
      4          1           0        3.055027    5.828075    4.745140
      5          6           0        3.743152    7.761419    4.107888
      6          6           0        4.839511    8.617108    4.041522
      7          1           0        4.725477    9.599452    3.587496
      8          6           0        6.082617    8.215593    4.553994
      9          1           0        2.779661    8.067073    3.711578
     10          6           0        7.242797    9.188792    4.460549
     11          1           0        7.641551    9.410054    5.455104
     12          1           0        8.064450    8.755708    3.881900
     13          1           0        6.955452   10.134254    3.990749
     14          6           0        5.273469    4.750141    5.843259
     15          1           0        6.110173    4.191192    5.416470
     16          1           0        5.484692    4.855254    6.913069
     17          1           0        4.360862    4.155601    5.738643
 ---------------------------------------------------------------------
                    Distance matrix (angstroms):
                    1          2          3          4          5
     1  C    0.000000
     2  C    1.413363   0.000000
     3  C    2.473586   1.402897   0.000000
     4  H    3.451553   2.165615   1.088219   0.000000
     5  C    2.871813   2.424111   1.392755   2.148819   0.000000
     6  C    2.473599   2.771479   2.397992   3.384991   1.392340
     7  H    3.451700   3.859631   3.384796   4.284136   2.148054
     8  C    1.413771   2.383091   2.772260   3.860450   2.424538
     9  H    3.957534   3.411770   2.158097   2.481368   1.085725
    10  C    2.526618   3.787030   4.288853   5.377065   3.795956
    11  H    2.821698   4.136111   4.794529   5.862663   4.441904
    12  H    2.827645   4.142125   4.797642   5.866049   4.439967
    13  H    3.451766   4.564793   4.791713   5.858805   3.995365
    14  C    2.522996   1.517332   2.507922   2.699869   3.797523
    15  H    2.777952   2.160587   3.279026   3.530437   4.479029
    16  H    2.856741   2.158049   3.189012   3.398466   4.398614
    17  H    3.449078   2.183977   2.614269   2.342952   4.005353
                    6          7          8          9         10
     6  C    0.000000
     7  H    1.088184   0.000000
     8  C    1.403265   2.165875   0.000000
     9  H    2.157402   2.479875   3.411926   0.000000
    10  C    2.505632   2.695879   1.517191   4.662488   0.000000
    11  H    3.237037   3.468043   2.160790   5.336802   1.094121
    12  H    3.231861   3.456490   2.161273   5.332188   1.094309
    13  H    2.604134   2.328393   2.181822   4.667805   1.094156
    14  C    4.288124   5.376298   3.785007   4.665316   5.048937
    15  H    4.805600   5.874675   4.115875   5.387153   5.212737
    16  H    4.776357   5.843224   4.149051   5.280390   5.280658
    17  H    4.797329   5.864801   4.566330   4.680684   5.939031
                   11         12         13         14         15
    11  H    0.000000
    12  H    1.755558   0.000000
    13  H    1.771873   1.772601   0.000000
    14  C    5.241495   5.261281   5.937132   0.000000
    15  H    5.439038   5.197010   6.169859   1.092999   0.000000
    16  H    5.246323   5.572852   6.210550   1.095517   1.752717
    17  H    6.201016   6.190723   6.747690   1.094200   1.779087
                   16         17
    16  H    0.000000
    17  H    1.769685   0.000000
 Symmetry turned off by external request.
 Stoichiometry    C8H9(1-)
 Framework group  C1[X(C8H9)]
 Deg. of freedom    45
 Full point group                 C1      NOp   1
 Rotational constants (GHZ):           3.6648647           1.7777297           1.2149468
 Standard basis: 6-311+G(d,p) (5D, 7F)
   230 basis functions,   360 primitive gaussians,   238 cartesian basis functions
    29 alpha electrons       29 beta electrons
       nuclear repulsion energy       328.2407270404 Hartrees.
 NAtoms=   17 NActive=   17 NUniq=   17 SFac= 1.00D+00 NAtFMM=   60 NAOKFM=F Big=F
 Integral buffers will be    131072 words long.
 Raffenetti 2 integral format.
 Two-electron integral symmetry is turned off.
 ------------------------------------------------------------------------------
 Polarizable Continuum Model (PCM)
 =================================
 Model                : PCM.
 Atomic radii         : SMD-Coulomb.
 Polarization charges : Total charges.
 Charge compensation  : None.
 Solution method      : Matrix inversion.
 Cavity type          : VdW (van der Waals Surface) (Alpha=1.000).
 Cavity algorithm     : GePol (No added spheres)
                        Default sphere list used, NSphG=   17.
                        Lebedev-Laikov grids with approx.  5.0 points / Ang**2.
                        Smoothing algorithm: York/Karplus (Gamma=1.0000).
                        Polarization charges: spherical gaussians, with
                                              point-specific exponents (IZeta= 3).
                        Self-potential: point-specific (ISelfS= 7).
                        Self-field    : sphere-specific E.n sum rule (ISelfD= 2).
 1st derivatives      : Analytical E(r).r(x)/FMM algorithm (CHGder, D1EAlg=3).
                        Cavity 1st derivative terms included.
 Solvent              : TetraHydroFuran, Eps=   7.425700 Eps(inf)=   1.974025
 ------------------------------------------------------------------------------
 Spheres list:
 ISph  on   Nord     Re0    Alpha      Xe            Ye            Ze
    1   C      1    1.8500  1.000      6.294298      6.949939      5.147340
    2   C      2    1.8500  1.000      5.154207      6.115847      5.192935
    3   C      3    1.8500  1.000      3.904566      6.505789      4.688495
    4   H      4    1.2000  1.000      3.055027      5.828075      4.745140
    5   C      5    1.8500  1.000      3.743152      7.761419      4.107888
    6   C      6    1.8500  1.000      4.839511      8.617108      4.041522
    7   H      7    1.2000  1.000      4.725477      9.599452      3.587496
    8   C      8    1.8500  1.000      6.082617      8.215593      4.553994
    9   H      9    1.2000  1.000      2.779661      8.067073      3.711578
   10   C     10    1.8500  1.000      7.242797      9.188792      4.460549
   11   H     11    1.2000  1.000      7.641551      9.410054      5.455104
   12   H     12    1.2000  1.000      8.064450      8.755708      3.881900
   13   H     13    1.2000  1.000      6.955452     10.134254      3.990749
   14   C     14    1.8500  1.000      5.273469      4.750141      5.843259
   15   H     15    1.2000  1.000      6.110173      4.191192      5.416470
   16   H     16    1.2000  1.000      5.484692      4.855254      6.913069
   17   H     17    1.2000  1.000      4.360862      4.155601      5.738643
 ------------------------------------------------------------------------------
 ------------------------------------------------------------------------------
 Atomic radii for non-electrostatic terms: SMD-CDS.
 ------------------------------------------------------------------------------
 Nuclear repulsion after PCM non-electrostatic terms =      328.2376031919 Hartrees.
 One-electron integrals computed using PRISM.
 NBasis=   230 RedAO= T EigKep=  3.33D-06  NBF=   230
 NBsUse=   230 1.00D-06 EigRej= -1.00D+00 NBFU=   230
 Initial guess from the checkpoint file:  "2-6-diMe-ph-anion-opt-freq-thf-non-tight-2-512.chk"
 B after Tr=     0.182522   -0.062751   -0.121328
         Rot=    0.999974    0.000747    0.006825   -0.002300 Ang=   0.83 deg.
 ExpMin= 4.38D-02 ExpMax= 4.56D+03 ExpMxC= 6.82D+02 IAcc=3 IRadAn=         5 AccDes= 0.00D+00
 Harris functional with IExCor= 1009 and IRadAn=       5 diagonalized for initial guess.
 HarFok:  IExCor= 1009 AccDes= 0.00D+00 IRadAn=         5 IDoV= 1 UseB2=F ITyADJ=14
 ICtDFT=  3500011 ScaDFX=  1.000000  1.000000  1.000000  1.000000
 FoFCou: FMM=F IPFlag=           0 FMFlag=      100000 FMFlg1=           0
         NFxFlg=           0 DoJE=T BraDBF=F KetDBF=T FulRan=T
         wScrn=  0.000000 ICntrl=       500 IOpCl=  0 I1Cent=   200000004 NGrid=           0
         NMat0=    1 NMatS0=      1 NMatT0=    0 NMatD0=    1 NMtDS0=    0 NMtDT0=    0
 Symmetry not used in FoFCou.
 Requested convergence on RMS density matrix=1.00D-08 within 512 cycles.
 Requested convergence on MAX density matrix=1.00D-06.
 Requested convergence on             energy=1.00D-06.
 Level shift goal  0.100 maximum shift  0.100.
 No special actions if energy rises.
 Dynamic level shift is on during FON iterations.
 Inv3:  Mode=1 IEnd=     5614272.
 Iteration    1 A*A^-1 deviation from unit magnitude is 4.88D-15 for   1353.
 Iteration    1 A*A^-1 deviation from orthogonality  is 2.19D-15 for   1360   1103.
 Iteration    1 A^-1*A deviation from unit magnitude is 5.11D-15 for   1353.
 Iteration    1 A^-1*A deviation from orthogonality  is 1.22D-15 for   1238   1158.
 Error on total polarization charges =  0.06381
 SCF Done:  E(RM062X) =  -310.254797774     A.U. after   14 cycles
            NFock= 14  Conv=0.41D-08     -V/T= 2.0045
 SMD-CDS (non-electrostatic) energy       (kcal/mol) =      -1.96
 (included in total energy above)
 D1PCM: PCM CHGder 1st derivatives, ID1Alg=3 FixD1E=F DoIter=F DoCFld=F I1PDM=0.
 Calling FoFJK, ICntrl=      2127 FMM=F ISym2X=0 I1Cent= 0 IOpClX= 0 NMat=1 NMatS=1 NMatT=0.
 -------------------------------------------------------------------
 Center     Atomic                   Forces (Hartrees/Bohr)
 Number     Number              X              Y              Z
 -------------------------------------------------------------------
      1        6           0.000443923    0.000500582    0.000198237
      2        6           0.000208868    0.000131093    0.001094227
      3        6          -0.000209661   -0.000407000   -0.000282444
      4        1          -0.000105510    0.000040945    0.000102963
      5        6          -0.000111825   -0.000278860   -0.000296331
      6        6           0.000180272    0.000332716    0.000064257
      7        1          -0.000080915    0.000101232    0.000108119
      8        6           0.000077719   -0.000130922   -0.000456853
      9        1          -0.000014070   -0.000024071    0.000045029
     10        6           0.000018542    0.000175091   -0.000069791
     11        1          -0.000068831    0.000025459   -0.000042441
     12        1          -0.000003361    0.000007276   -0.000006550
     13        1           0.000004883    0.000050975   -0.000072910
     14        6          -0.000041168    0.000373460    0.000938635
     15        1          -0.000332067   -0.000548917   -0.000569730
     16        1          -0.000217655   -0.000057815   -0.000310040
     17        1           0.000250855   -0.000291244   -0.000444379
 -------------------------------------------------------------------
 Cartesian Forces:  Max     0.001094227 RMS     0.000311480

 GradGradGradGradGradGradGradGradGradGradGradGradGradGradGradGradGradGrad
 Berny optimization.
 Using GEDIIS/GDIIS optimizer.
 FormGI is forming the generalized inverse of G from B-inverse, IUseBI=4.
 Internal  Forces:  Max     0.001165820 RMS     0.000276473
 Search for a local minimum.
 Step number   3 out of a maximum of   87
 All quantities printed in internal units (Hartrees-Bohrs-Radians)
 Mixed Optimization -- En-DIIS/RFO-DIIS
 Update second derivatives using D2CorX and points    2    3
 DE= -5.13D-04 DEPred=-5.94D-04 R= 8.63D-01
 TightC=F SS=  1.41D+00  RLast= 9.25D-01 DXNew= 8.4853D-01 2.7748D+00
 Trust test= 8.63D-01 RLast= 9.25D-01 DXMaxT set to 8.49D-01
 ITU=  1  1  0
 Use linear search instead of GDIIS.
     Eigenvalues ---   -0.00009   0.00029   0.00777   0.01785   0.01961
     Eigenvalues ---    0.02253   0.02486   0.02503   0.02609   0.02904
     Eigenvalues ---    0.05496   0.05680   0.05695   0.05822   0.10634
     Eigenvalues ---    0.11557   0.11722   0.11896   0.12101   0.13023
     Eigenvalues ---    0.13592   0.14159   0.14235   0.14771   0.18287
     Eigenvalues ---    0.18626   0.19317   0.20127   0.28918   0.31618
     Eigenvalues ---    0.31907   0.33797   0.33835   0.34351   0.34459
     Eigenvalues ---    0.34861   0.34919   0.35450   0.35761   0.36183
     Eigenvalues ---    0.42436   0.42931   0.45681   0.49504   0.50304
 RFO step:  Lambda=-8.76063025D-05 EMin=-8.66109050D-05
 I=     1 Eig=   -8.66D-05 Dot1=  8.69D-07
 I=     1 Stepn=  6.00D-01 RXN=   6.00D-01 EDone=F
 Mixed    1 eigenvectors in step.  Raw Step.Grad=  8.69D-07.
 RFO eigenvector is Hessian eigenvector with negative curvature.
 Taking step of  6.00D-01 in eigenvector direction(s).  Step.Grad= -4.37D-06.
 Quartic linear search produced a step of  0.01973.
 Iteration  1 RMS(Cart)=  0.07319456 RMS(Int)=  0.01267726
 Iteration  2 RMS(Cart)=  0.01601013 RMS(Int)=  0.00030382
 Iteration  3 RMS(Cart)=  0.00032820 RMS(Int)=  0.00000371
 Iteration  4 RMS(Cart)=  0.00000013 RMS(Int)=  0.00000370
 Variable       Old X    -DE/DX   Delta X   Delta X   Delta X     New X
                                 (Linear)    (Quad)   (Total)
    R1        2.67087   0.00086   0.00027   0.00305   0.00332   2.67419
    R2        2.67164   0.00046   0.00015   0.00679   0.00695   2.67859
    R3        2.65109   0.00027  -0.00003   0.00343   0.00340   2.65449
    R4        2.86734   0.00027   0.00010   0.00315   0.00324   2.87059
    R5        2.05644   0.00006   0.00001   0.00071   0.00071   2.05715
    R6        2.63193   0.00004   0.00015  -0.00115  -0.00101   2.63092
    R7        2.63114   0.00028   0.00002   0.00322   0.00324   2.63438
    R8        2.05172  -0.00001   0.00001   0.00014   0.00014   2.05187
    R9        2.05637   0.00006   0.00002   0.00028   0.00030   2.05667
   R10        2.65179   0.00006   0.00011  -0.00160  -0.00149   2.65030
   R11        2.86707   0.00015   0.00012   0.00189   0.00201   2.86909
   R12        2.06759  -0.00005   0.00002   0.00035   0.00037   2.06796
   R13        2.06794   0.00001   0.00001   0.00023   0.00024   2.06818
   R14        2.06765   0.00006   0.00002   0.00033   0.00035   2.06801
   R15        2.06547   0.00024   0.00006  -0.00122  -0.00116   2.06431
   R16        2.07023  -0.00036  -0.00001   0.00121   0.00121   2.07144
   R17        2.06774   0.00001   0.00001   0.00077   0.00077   2.06851
    A1        2.00543  -0.00012  -0.00056  -0.01129  -0.01183   1.99360
    A2        2.14468  -0.00013   0.00039   0.00589   0.00628   2.15096
    A3        2.07327   0.00117  -0.00053   0.00600   0.00547   2.07874
    A4        2.06497  -0.00103   0.00015  -0.01189  -0.01175   2.05322
    A5        2.09852   0.00003   0.00013   0.00119   0.00132   2.09984
    A6        2.09870   0.00006  -0.00007   0.00040   0.00032   2.09902
[...]
   zz         0.151092D+03      0.223896D+02      0.249117D+02

 ----------------------------------------------------------------------
 Unable to Open any file for archive entry.
 1\1\GINC-CN013\Freq\RM062X\6-311+G(d,p)\C8H9(1-)\TAHMINAAFROZ\30-May-2
 025\0\\#N Geom=AllCheck Guess=TCheck SCRF=Check GenChk RM062X/6-311+G(
 d,p) Freq\\2-6-diMe-ph-anion-opt-freq-thf-non-tight-2-512\\-1,1\C,6.29
 26695669,6.9592463742,5.1669071252\C,5.1536471737,6.1221460703,5.20898
 06063\C,3.9064984932,6.5065678324,4.6928402797\H,3.0573185925,5.828276
 182,4.7483332859\C,3.7462803524,7.7585202364,4.1039367675\C,4.84171672
 67,8.6159099619,4.0385490638\H,4.7281298539,9.5958680773,3.579139105\C
 ,6.0827629365,8.2192030555,4.5598227266\H,2.7840112202,8.0606874192,3.
 7020342208\C,7.2410052433,9.1952258973,4.4667381077\H,7.5903128141,9.4
 752920189,5.4654366906\H,8.0913287402,8.7356651698,3.9542625922\H,6.97
 17746508,10.1110922142,3.9320313356\C,5.2727439911,4.7463517311,5.8388
 894867\H,6.0418335787,4.1559936951,5.3319014788\H,5.5776664237,4.82683
 00313,6.8866807674\H,4.3322606421,4.1884120331,5.7996483601\\Version=A
 S64L-G16RevC.01\HF=-310.2548538\RMSD=7.344e-10\RMSF=9.616e-06\ZeroPoin
 t=0.1419126\Thermal=0.1497673\ETot=-310.1050865\HTot=-310.1041423\GTot
 =-310.1455511\Dipole=-1.7895907,0.5636077,-0.7437799\DipoleDeriv=-0.29
 50908,-0.2933514,0.2834106,-0.2867786,-1.013404,-0.0107004,0.2772079,-
 0.005112,-0.7575528,-0.1737343,0.1306247,-0.0753491,0.1167645,0.506802
 8,-0.2345098,-0.0733166,-0.2390114,-0.0211328,-0.1088784,0.0154228,0.0
 012996,-0.0777978,-0.1076991,-0.0371498,0.0469254,-0.0101382,-0.128893
 9,-0.149771,-0.1596176,-0.0223029,-0.1603558,-0.0181342,0.0386655,-0.0
 209895,0.038999,0.1532392,-0.1290295,0.0480261,0.016253,0.0523487,-0.0
 759707,-0.0680151,0.0141425,-0.067682,-0.2285353,-0.0674353,-0.0339992
 ,0.0394672,0.0566095,-0.1418832,0.0078561,0.0001704,-0.0257273,-0.1486
 906,0.0612349,0.0438887,-0.0511283,0.0459601,-0.1674661,0.1629064,-0.0
 518563,0.1638109,0.0902676,0.0782436,0.3628052,-0.1061538,0.37826,0.34
 13012,-0.0727941,-0.1020133,-0.0654596,-0.0953388,-0.1276602,0.0571081
 ,-0.1098202,0.0551283,0.0718967,0.0606288,-0.1119156,0.062761,0.117185
 ,-0.0913379,-0.1791041,0.0258454,-0.1507327,0.0535245,-0.0309523,-0.00
 50586,-0.0560039,0.1103134,0.0152782,-0.0841898,-0.0382619,-0.0895716,
 0.0156648,-0.0170543,-0.0877369,-0.0873608,-0.120097,-0.1113236,-0.009
 8706,0.0949444,0.0638037,-0.010189,-0.0657986,0.1198262,-0.0125969,0.0
 386518,0.0370303,0.072809,-0.0546504,-0.0211092,-0.1786895,0.1245918,-
 0.0073524,0.1571654,0.0171417,0.1538416,0.112843,-0.0263535,0.0664628,
 -0.1242538,0.1080125,-0.0056448,0.1249499,0.0270859,-0.0273452,0.12110
 99,0.0840785,0.0627438,-0.0824088,0.0108504,0.0918963,-0.0566839,0.024
 3814,0.0828182,-0.0083361,-0.0745565,-0.0150467,-0.0093632,-0.0145983,
 -0.0549088,0.0698924,-0.1595332,-0.1468404,-0.1961686,0.013278,-0.0966
 889,-0.0597283,0.0380612,-0.0293758,0.0081972,0.0815085\Polar=169.6916
 331,4.7428887,158.6580306,17.7107209,-23.9679448,115.6749306\Quadrupol
 e=-6.0069453,-34.9230494,40.9299947,-154.9382568,-116.7941459,-128.755
 6443\PG=C01 [X(C8H9)]\NImag=0\\0.36413287,0.08977687,0.45361981,0.0422
 6144,-0.14143750,0.14067373,-0.21943959,-0.07544916,-0.01214744,0.5830
 3801,-0.09982039,-0.15576465,0.01352798,0.02776747,0.53127168,-0.00148
 892,0.02039082,-0.06756471,0.10043592,-0.14556933,0.26871268,-0.048380
 84,-0.04324900,-0.00072978,-0.25879180,0.07642922,-0.08572828,0.641696
 52,0.00160329,0.05074758,-0.01247972,0.00201862,-0.12824609,0.02636997
 ,0.08453599,0.62233254,-0.02032740,-0.02495459,0.02637229,-0.05347497,
 0.04748647,-0.10442674,0.10629849,-0.18971692,0.24225994,-0.00434945,0
 .00141534,-0.00329715,-0.01597729,-0.01954473,0.00289014,-0.22132586,-
 0.13430291,0.00591536,0.23258452,0.00193405,0.00192564,0.00194916,0.00
 541209,0.00568645,0.00072639,-0.13359388,-0.15920158,0.01604424,0.1463
 1799,0.16742003,-0.00347610,0.00182167,0.00339592,-0.00792894,-0.00629
 337,0.00439483,0.00558897,0.01578871,-0.04077631,-0.00479579,-0.020840
 29,0.03206507,-0.00913664,-0.02476418,0.01020764,0.02046897,0.03028388
 ,-0.00969386,-0.12282003,0.04733001,-0.03750108,0.00545207,-0.02372173
 ,0.01119402,0.69278460,-0.02488921,-0.05651603,0.01461902,0.08339411,0
 .00138046,0.02631853,-0.01461991,-0.29148149,0.09510996,0.00427288,-0.
 01276747,0.00779912,0.03298201,0.59361903,0.01016732,0.01459019,-0.010
 42130,-0.03271960,0.01132288,-0.00597963,-0.01066694,0.11273677,-0.114
 35168,-0.00097362,-0.00012919,0.00208366,0.14254005,-0.19138920,0.2549
 6363,0.02411006,0.07168680,-0.03044713,-0.06901045,-0.01034643,-0.0124
 2018,0.04097576,-0.06293057,0.03640796,0.00237070,0.00171411,-0.002422
 17,-0.25525007,-0.08047415,-0.01788882,0.62070035,0.02686643,-0.000438
 72,0.01686321,-0.01823255,-0.00402758,-0.00718073,-0.01336135,-0.04223
 665,0.01829699,0.00036581,-0.00265678,0.00481194,-0.14255041,-0.198514
 59,0.01847053,0.06450384,0.63692945,-0.01095439,0.02938563,0.00514302,
 -0.00889174,-0.00491126,-0.00895002,0.01486108,0.00454007,0.01091330,-
 0.00179214,0.00518878,0.00542587,0.00891156,0.03591839,-0.07732159,0.1
 0860948,-0.20204718,0.25071779,-0.00418343,0.00207650,-0.00354818,-0.0
 0139242,-0.00070420,-0.00011293,-0.00291902,-0.00340531,-0.00164750,0.
 00012683,-0.00130781,0.00042858,0.00638286,-0.02284530,0.01107307,-0.0
 5830025,0.02382136,-0.01708843,0.05718536,0.00157202,0.00179480,0.0019
 1089,0.00047466,0.00052850,-0.00004660,-0.00477670,0.00110090,0.001762
 67,0.00022155,-0.00077785,0.00067575,0.00517156,-0.01343562,0.00831303
 ,0.02314160,-0.27379442,0.11052808,-0.02313912,0.29083844,-0.00331426,
 0.00199628,0.00334734,-0.00061594,-0.00037648,0.00011233,-0.00104614,0
 .00212659,0.00696214,-0.00023810,0.00024744,0.00045045,-0.00114466,0.0
 0044282,0.00184173,-0.01683781,0.11084123,-0.08847656,0.01965258,-0.12
 287715,0.08334222,-0.10570639,0.01046305,-0.01774757,0.03849844,-0.020
 23321,0.02063201,-0.02336098,0.03384599,-0.01889971,-0.00037904,0.0003
 0721,-0.00022897,-0.05583630,-0.04373821,0.00087003,-0.25954939,0.0755
 0053,-0.08605778,0.00195001,-0.00211538,0.00046489,0.59040190,0.034909
 19,-0.23414229,0.08755638,-0.04822262,-0.03994578,0.00223924,0.0259862
 8,-0.03643569,0.01932858,0.00145547,-0.00019848,0.00055683,0.00944206,
 0.05542598,-0.01794674,0.00112372,-0.12747932,0.02606675,0.02280933,-0
 .00699961,0.01120383,0.03583895,0.52440819,-0.02854512,0.08102517,-0.0
 9924845,0.03272989,0.00973630,0.00079519,-0.01527193,0.02161999,-0.022
 21246,-0.00076829,0.00022746,-0.00018014,-0.02219675,-0.03266657,0.016
 21151,-0.05376647,0.04680217,-0.10445786,-0.01049701,0.00419740,-0.000
 86557,0.10130761,-0.14235385,0.26494185,0.00003140,-0.00005745,0.00100
 007,0.00252931,-0.00006749,-0.00135669,0.00013570,-0.00163802,-0.00012
 518,0.00040853,0.00093700,0.00090992,-0.27596126,0.06642921,-0.0967695
 5,-0.01619070,0.01050693,-0.00997505,0.00070537,0.00019162,0.00131416,
 -0.00109174,-0.00496227,-0.00025447,0.29097218,-0.00004725,-0.00108086
 ,-0.00104673,-0.00148260,-0.00345974,0.00433423,0.02637597,-0.00198389
 ,0.00963673,-0.00008588,0.00035220,-0.00203556,0.06646825,-0.07650549,
 0.03710081,-0.01754783,0.00963747,-0.00777997,0.00122863,0.00013601,-0
 .00157980,-0.00354398,-0.00090814,0.00264462,-0.07164453,0.07414092,0.
 00102202,-0.00103465,-0.00273414,-0.00078365,0.00471206,0.00520138,-0.
 01227219,0.00168679,-0.00111410,0.00134735,-0.00173997,-0.00313086,-0.
 09674230,0.03710348,-0.07747791,0.00216417,0.00015566,0.00364604,0.000
 87268,-0.00187245,-0.00321380,-0.00081961,0.00226356,0.00626886,0.1060
 0064,-0.04178322,0.07233630,0.00153546,-0.00433873,0.00329665,0.004872
 55,0.00321669,-0.00187779,-0.00224871,0.00081971,-0.00062251,0.0000422
 2,0.00002935,0.00032536,-0.00157038,0.00089720,-0.00318112,-0.02722410
 ,-0.02174174,0.00007894,0.00052572,-0.00068318,0.00155991,-0.15974251,
 -0.05661708,-0.00114705,-0.00076830,-0.00073296,-0.00001572,0.51774016
 ,-0.02139052,-0.02548715,0.00460613,-0.00086528,-0.00257789,0.00404628
 ,0.00033590,-0.00032302,-0.00026813,-0.00008425,-0.00010696,-0.0005820
 5,0.00109300,0.00120284,0.00351640,0.00249426,0.00541656,0.00080484,0.
 00184904,-0.00028695,-0.00118421,-0.06566004,-0.12745155,0.00641853,0.
 00063710,0.00038772,0.00013630,-0.04564023,0.53747204,0.01102357,0.009
 19289,-0.00098075,0.00006305,0.00556229,0.00533541,-0.00073602,-0.0001
 1281,-0.00130294,0.00043555,-0.00053321,-0.00101690,-0.00306739,0.0031
 5701,0.00573022,-0.01015243,-0.00593583,0.00524161,0.00039833,-0.00164
 710,-0.00290124,0.00283655,0.00952197,-0.07292950,-0.00057430,-0.00021
 968,0.00026558,0.01164430,-0.01209968,0.54812556,0.00066740,0.00178567
 ,-0.00055660,-0.00021585,0.00053100,0.00102735,-0.00021324,-0.00014118
 ,-0.00019263,0.00007510,-0.00015914,-0.00021717,-0.00099530,0.00054472
 ,0.00121682,-0.00160863,-0.00253396,0.00056563,0.00015086,-0.00028876,
 -0.00054433,-0.01026395,-0.00750660,-0.02300401,-0.00026988,-0.0001162
 2,0.00001374,-0.06686446,-0.01983650,-0.07724459,0.07497178,-0.0013327
 2,0.00033006,0.00065203,0.00166251,0.00078225,0.00075254,-0.00106770,0
 .00057127,-0.00078472,0.00002556,-0.00001843,0.00001838,-0.00091083,-0
 .00073289,0.00067589,0.00059502,-0.00138169,0.00035210,0.00000151,0.00
 018461,-0.00012378,-0.00693479,-0.00498365,-0.01816514,-0.00019999,-0.
 00004640,0.00010900,-0.01950706,-0.06276475,-0.06026188,0.02470365,0.0
 6406028,0.00114284,0.00079352,-0.00002579,-0.00118831,-0.00026486,0.00
 069990,0.00059910,-0.00041049,0.00026115,0.00006784,-0.00014262,-0.000
 22901,0.00021256,0.00049073,-0.00020875,-0.00058518,-0.00070388,0.0001
 4791,0.00011842,-0.00009419,0.00007712,0.00060882,0.00173256,0.0046510
 6,-0.00003495,-0.00003469,-0.00002236,-0.07579810,-0.05983745,-0.27048
 755,0.08256700,0.06543280,0.29204837,0.00119372,0.00200009,-0.00082659
 ,0.00043808,-0.00062965,-0.00123699,-0.00019504,0.00000276,0.00019821,
 -0.00007357,0.00006228,0.00035310,-0.00032737,-0.00040189,-0.00140880,
 -0.00195743,-0.00294833,0.00106361,-0.00003265,0.00014203,0.00047447,-
 0.02050954,0.00910123,0.01021393,-0.00029178,-0.00018543,-0.00006011,-
 0.20076099,0.09022498,0.09870997,0.00787455,-0.00462979,-0.00440447,0.
 22020557,-0.00119933,-0.00045875,-0.00111470,0.00172950,0.00083112,0.0
 0030781,-0.00114763,0.00069318,-0.00047131,0.00006976,-0.00006593,-0.0
 0014524,-0.00063209,-0.00114436,-0.00050276,-0.00001909,-0.00104045,0.
 00076324,-0.00015728,0.00025463,0.00005013,-0.01737671,0.00898604,0.01
 088589,-0.00012522,-0.00013410,-0.00011271,0.08978696,-0.09542528,-0.0
 5337707,0.00556352,-0.00397775,-0.00330784,-0.09504516,0.10210808,0.00
 011793,0.00064247,0.00064464,-0.00065144,0.00002407,-0.00001447,0.0003
 3497,-0.00017528,0.00006525,-0.00002381,0.00001047,0.00000015,0.000063
 62,0.00002172,-0.00035266,-0.00057729,0.00009357,-0.00035365,-0.000119
 57,-0.00005809,0.00028874,-0.00088482,-0.00066452,0.00046964,0.0000014
 7,0.00003737,0.00004104,0.09793241,-0.05313167,-0.10380776,0.02348689,
 -0.01361436,-0.01446197,-0.10608794,0.06035578,0.10884713,-0.00320114,
 -0.00280577,-0.00017046,0.00048202,-0.00133360,0.00048297,-0.00008205,
 0.00018542,-0.00004758,0.00000473,0.00003953,-0.00001344,0.00014048,-0
 .00025061,0.00021769,0.00090789,-0.00081496,0.00051469,-0.00051259,-0.
 00005050,-0.00022483,0.00777226,-0.01858437,0.01231525,0.00004966,0.00
 004506,-0.00000381,-0.06603019,0.05755326,-0.03388002,-0.00329611,0.00
 758368,-0.00324476,-0.00553928,0.01855186,-0.01359855,0.06957988,-0.00
 458677,-0.00374512,0.00123599,0.00029423,-0.00073635,0.00043276,-0.000
 31405,0.00009153,-0.00017541,-0.00015775,0.00002958,-0.00003770,-0.000
 37845,-0.00011030,-0.00021515,0.00242797,0.00057217,0.00040116,-0.0005
 0030,0.00081558,-0.00028518,0.00939122,-0.01404153,0.00893620,-0.00003
 971,-0.00000781,-0.00001862,0.05413109,-0.22949627,0.10653607,-0.00246
 315,0.00810938,-0.00368809,0.00241795,-0.01059964,0.00642312,-0.059900
 67,0.24940035,0.00061982,0.00163066,0.00111369,-0.00029947,0.00001618,
 0.00028256,0.00024624,-0.00011388,-0.00001201,0.00007504,-0.00000931,-
 0.00000226,0.00028956,-0.00001196,-0.00001247,-0.00090121,-0.00044386,
 0.00009750,0.00001909,-0.00024615,0.00037542,-0.00142049,-0.00047476,-
 0.00201581,0.00004328,0.00000544,-0.00002388,-0.03223775,0.10766035,-0
 .11101914,-0.00712292,0.02497145,-0.01254019,0.00299836,-0.01347508,0.
 00863669,0.03759655,-0.11953279,0.11520687,0.00272122,-0.02280493,0.01
 091991,-0.08433871,0.00786066,-0.00725393,-0.00194394,0.02701065,-0.01
 373721,0.00014785,0.00139117,0.00057405,-0.00280827,-0.00007133,-0.003
 09194,-0.00206589,0.00070886,-0.00056398,0.00020419,0.00010583,0.00038
 456,-0.00139729,-0.00719511,0.00064690,-0.00021272,0.00117704,-0.00066
 714,0.00054304,-0.00076126,0.00058190,-0.00001612,0.00004540,-0.000073
 75,-0.00003711,0.00004909,-0.00000467,-0.00028514,-0.00031237,0.000084
 04,0.57704329,-0.00555697,-0.02600750,0.00928829,0.01706127,-0.1804002
 1,0.05297798,0.00288213,-0.01238528,0.00862018,-0.00110667,0.00003510,
 -0.00197775,-0.00028100,0.00199250,0.00253531,0.00106642,-0.00053002,0
 .00003027,0.00023145,-0.00024186,-0.00040539,-0.00292379,0.00186221,0.
 00163173,-0.00017165,-0.00001361,0.00010660,0.00025085,-0.00020816,0.0
 0004252,-0.00003256,-0.00005057,0.00003419,-0.00002730,0.00000936,0.00
 000074,-0.00010715,-0.00010924,-0.00002681,0.01480413,0.49443593,0.003
 43809,0.00428186,-0.00111961,-0.01117180,0.05035890,-0.09519466,-0.003
 26454,0.01530391,-0.00184273,0.00157765,-0.00129907,-0.00284331,-0.002
 88439,0.00262726,0.00615771,-0.00077941,-0.00003408,-0.00134129,0.0003
 4566,-0.00046172,-0.00106864,-0.00116997,0.00036730,0.00713957,-0.0000
 7717,0.00047002,0.00009765,0.00010843,-0.00024776,-0.00013749,-0.00002
 916,-0.00002819,0.00003981,0.00000391,0.00010477,-0.00000057,0.0000036
 4,-0.00008869,-0.00007471,0.00306127,0.02461819,0.53074796,-0.00012472
 ,-0.00194001,0.00143915,-0.00172883,0.00165823,-0.00062423,-0.00011377
 ,0.00178974,-0.00086857,0.00016988,0.00020354,0.00028870,-0.00033310,-
 0.00080928,-0.00033586,0.00098726,0.00002645,0.00032553,-0.00005802,0.
 00018117,0.00030696,-0.00029994,0.00080729,-0.00159625,-0.00005225,0.0
 0011354,0.00000110,-0.00004139,0.00001280,-0.00008702,-0.00000180,-0.0
 0002543,0.00000506,0.00003266,-0.00001891,0.00000272,0.00001290,0.0000
 1497,-0.00002454,-0.17797836,0.09784269,0.09058857,0.19026584,0.000670
 30,0.00118337,0.00082842,0.02063335,-0.01614093,-0.01212050,-0.0013761
 1,-0.00259041,0.00028941,0.00017511,-0.00000607,-0.00031351,-0.0000554
 2,-0.00047367,0.00152647,0.00105654,-0.00029661,0.00009849,-0.00002467
 ,-0.00008607,-0.00015209,-0.00097712,0.00144957,0.00033719,0.00006368,
 -0.00023463,0.00026258,-0.00002010,-0.00003570,-0.00004749,-0.00001970
 ,-0.00004725,0.00001535,-0.00003645,-0.00001430,0.00002140,0.00000038,
 -0.00002224,-0.00001102,0.09811249,-0.11932151,-0.06896080,-0.10916222
 ,0.12947342,-0.00061829,-0.00025283,0.00018671,-0.01118959,0.00994060,
 0.00708258,0.00013393,0.00123431,-0.00045550,-0.00014100,0.00023630,0.
 00033003,0.00005373,0.00009862,-0.00107386,-0.00036235,0.00008678,-0.0
 0010147,0.00000449,0.00000636,-0.00000680,0.00002392,-0.00049194,0.000
 10719,-0.00004178,0.00010079,-0.00007943,0.00001339,0.00002273,0.00005
 295,0.00001214,0.00001102,-0.00000480,-0.00000176,-0.00000181,0.000006
 80,-0.00001083,0.00001054,0.00001058,0.08974292,-0.06829306,-0.1025486
 1,-0.09804671,0.07098902,0.11106061,0.00019073,-0.00218766,0.00020689,
 -0.00142686,0.00118181,-0.00324173,-0.00039554,0.00172941,-0.00069589,
 0.00029116,-0.00002501,-0.00035547,-0.00061192,-0.00029581,0.00070673,
 0.00094501,0.00001478,0.00025474,0.00008315,-0.00007019,-0.00024761,-0
 .00081664,0.00134942,-0.00004404,-0.00001778,0.00004343,-0.00009941,-0
 .00005405,0.00004179,0.00000439,0.00001811,-0.00001289,0.00001606,-0.0
 0000383,-0.00002328,0.00001383,-0.00000236,0.00002169,0.00000860,-0.06
 543822,-0.00889646,-0.07098729,0.00680253,0.00208928,0.02266913,0.0669
 2081,0.00132361,-0.00000097,-0.00031516,0.00887067,0.00086303,0.029927
 89,-0.00123891,-0.00189921,0.00078547,0.00003343,0.00022308,0.00042686
 ,0.00047879,-0.00163652,-0.00069358,0.00110921,-0.00011843,0.00059251,
 -0.00005142,0.00000353,0.00003738,-0.00045993,0.00103393,-0.00132754,0
 .00011863,-0.00028643,0.00003582,-0.00006385,0.00001903,0.00006204,-0.
 00000872,-0.00001756,-0.00000853,-0.00002356,-0.00004392,0.00001211,-0
 .00000961,-0.00000198,0.00003368,-0.00862153,-0.04505724,-0.02233145,-
 0.00530073,-0.00218819,-0.01605056,0.00675825,0.05132937,-0.00044314,-
 0.00096248,0.00089125,-0.00417808,0.00002478,-0.01019696,0.00092410,0.
 00160771,-0.00067580,0.00009634,-0.00012034,-0.00006191,-0.00037650,0.
 00035174,0.00032858,0.00001621,-0.00000028,-0.00022343,0.00012328,-0.0
 0007761,-0.00024862,-0.00008041,0.00057212,0.00104782,-0.00006631,0.00
 018504,-0.00004610,-0.00002987,0.00004203,0.00000244,0.00002777,0.0000
 2201,0.00002882,0.00000385,0.00001609,-0.00000627,0.00001055,0.0000208
 4,0.00000006,-0.07030081,-0.02338364,-0.28940628,-0.00434263,-0.001753
 38,-0.01512057,0.07844374,0.02370171,0.31266127,-0.00006067,-0.0016074
 2,0.00013914,0.00199441,0.00375072,-0.00043287,-0.00001715,0.00154641,
 -0.00067980,0.00043161,0.00045926,-0.00022466,0.00042165,-0.00012444,0
 .00024454,0.00015987,-0.00013169,0.00013826,0.00008405,-0.00007823,0.0
 0005616,0.00033110,0.00026511,-0.00012219,0.00002426,-0.00006525,0.000
 04224,0.00004592,-0.00000404,0.00004416,-0.00001247,0.00000388,-0.0000
 0818,-0.00001600,-0.00000599,-0.00000575,-0.00000095,-0.00004587,0.000
 02580,-0.24413781,-0.11503540,-0.00876348,-0.01753890,-0.01112933,-0.0
 0224133,-0.00648430,-0.00291432,0.00017192,0.26477540,0.00016740,-0.00
 595922,0.00335632,-0.02506626,-0.01004426,-0.00390729,-0.00180026,0.00
 124629,-0.00098962,0.00092931,0.00012747,0.00032623,0.00004456,-0.0003
 0238,0.00008833,0.00039858,-0.00004038,0.00006810,0.00011757,-0.000034
 63,0.00003838,-0.00138379,-0.00057989,0.00005047,0.00002216,0.00000680
 ,-0.00001025,0.00021307,-0.00033449,0.00015997,-0.00002206,-0.00001693
 ,-0.00000652,-0.00002377,0.00002206,0.00000111,-0.00010195,-0.00014811
 ,0.00002788,-0.11149879,-0.11400989,-0.00468043,0.01460617,0.00935122,
 0.00235312,-0.00171855,-0.00222152,-0.00024637,0.12511661,0.12293783,-
 0.00062542,0.00289089,0.00032617,0.01201212,0.00470278,-0.00028967,0.0
 0072892,-0.00000574,0.00033621,-0.00037537,0.00018376,0.00009470,0.000
 13418,0.00000935,-0.00011720,-0.00005736,-0.00007623,-0.00010718,-0.00
 002256,-0.00001313,-0.00001627,0.00056549,0.00052268,0.00027710,0.0000
 0591,-0.00003539,-0.00001428,-0.00004947,0.00009737,-0.00017052,-0.000
 00593,-0.00001915,0.00002626,0.00000726,0.00002481,-0.00000277,0.00005
 295,0.00004495,-0.00002292,-0.01030210,-0.00579936,-0.04860482,0.01296
 803,0.00899046,0.00055359,-0.02665267,-0.01488864,0.00102571,0.0116160
 3,0.00337058,0.04670589\\0.00000048,-0.00000370,-0.00000268,-0.0000070
 1,0.00000098,-0.00000177,-0.00000418,0.00001020,0.00000091,-0.00000944
 ,0.00001567,0.00000122,0.00000328,0.00001189,0.00000398,0.00000898,0.0
 0000404,0.00000380,0.00001458,0.00000639,0.00000533,0.00000469,-0.0000
 0609,0.00000055,0.00000394,0.00001982,0.00000559,0.00001236,-0.0000128
 6,0.00000094,0.00001665,-0.00001600,0.00000039,0.00000881,-0.00001653,
 -0.00000178,0.00001838,-0.00000977,0.00000234,-0.00001588,-0.00000100,
 -0.00000579,-0.00002121,-0.00000476,-0.00000554,-0.00001444,-0.0000040
 4,-0.00000454,-0.00002001,0.00000576,-0.00000295\\\@
 The archive entry for this job was punched.


 EVERYBODY NEEDS BEAUTY AS WELL AS BREAD, PLACES TO PLAY IN AND PRAY IN,
 WHERE NATURE MAY HEAL AND CHEER AND GIVE STRENGTH TO BODY AND SOUL ALIKE.

                                    -- JOHN MUIR
 Job cpu time:       0 days  0 hours 35 minutes 46.6 seconds.
 Elapsed time:       0 days  0 hours  1 minutes 10.8 seconds.
 File lengths (MBytes):  RWF=    120 Int=      0 D2E=      0 Chk=     14 Scr=      1
 Normal termination of Gaussian 16 at Fri May 30 05:22:43 2025.
