/home/tahminaafroz
cn012.cluster.local
tahminaafroz
Mon May  5 07:49:58 CDT 2025
 Entering Gaussian System, Link 0=g16
 Initial command:
 /home/apps/g16/l1.exe "/tmp/2-6-diMe-phboh2-opt-freq/Gau-1219864.inp" -scrdir="/tmp/2-6-diMe-phboh2-opt-freq/"
 Entering Link 1 = /home/apps/g16/l1.exe PID=   1219865.
  
 Copyright (c) 1988-2019, Gaussian, Inc.  All Rights Reserved.
  
 This is part of the Gaussian(R) 16 program.  It is based on
 the Gaussian(R) 09 system (copyright 2009, Gaussian, Inc.),
 the Gaussian(R) 03 system (copyright 2003, Gaussian, Inc.),
 the Gaussian(R) 98 system (copyright 1998, Gaussian, Inc.),
 the Gaussian(R) 94 system (copyright 1995, Gaussian, Inc.),
 the Gaussian 92(TM) system (copyright 1992, Gaussian, Inc.),
 the Gaussian 90(TM) system (copyright 1990, Gaussian, Inc.),
 the Gaussian 88(TM) system (copyright 1988, Gaussian, Inc.),
 the Gaussian 86(TM) system (copyright 1986, Carnegie Mellon
 University), and the Gaussian 82(TM) system (copyright 1983,
 Carnegie Mellon University). Gaussian is a federally registered
 trademark of Gaussian, Inc.
  
 This software contains proprietary and confidential information,
 including trade secrets, belonging to Gaussian, Inc.
  
 This software is provided under written license and may be
 used, copied, transmitted, or stored only in accord with that
 written license.
  
 The following legend is applicable only to US Government
 contracts under FAR:
  
                    RESTRICTED RIGHTS LEGEND
  
 Use, reproduction and disclosure by the US Government is
 subject to restrictions as set forth in subparagraphs (a)
 and (c) of the Commercial Computer Software - Restricted
 Rights clause in FAR 52.227-19.
  
 Gaussian, Inc.
 340 Quinnipiac St., Bldg. 40, Wallingford CT 06492
  
  
 ---------------------------------------------------------------
 Warning -- This program may not be used in any manner that
 competes with the business of Gaussian, Inc. or will provide
 assistance to any competitor of Gaussian, Inc.  The licensee
 of this program is prohibited from giving any competitor of
 Gaussian, Inc. access to this program.  By using this program,
 the user acknowledges that Gaussian, Inc. is engaged in the
 business of creating and licensing software in the field of
 computational chemistry and represents and warrants to the
 licensee that it is not a competitor of Gaussian, Inc. and that
 it will not use this program in any manner prohibited above.
 ---------------------------------------------------------------
  

 Cite this work as:
 Gaussian 16, Revision C.01,
 M. J. Frisch, G. W. Trucks, H. B. Schlegel, G. E. Scuseria, 
 M. A. Robb, J. R. Cheeseman, G. Scalmani, V. Barone, 
 G. A. Petersson, H. Nakatsuji, X. Li, M. Caricato, A. V. Marenich, 
 J. Bloino, B. G. Janesko, R. Gomperts, B. Mennucci, H. P. Hratchian, 
 J. V. Ortiz, A. F. Izmaylov, J. L. Sonnenberg, D. Williams-Young, 
 F. Ding, F. Lipparini, F. Egidi, J. Goings, B. Peng, A. Petrone, 
 T. Henderson, D. Ranasinghe, V. G. Zakrzewski, J. Gao, N. Rega, 
 G. Zheng, W. Liang, M. Hada, M. Ehara, K. Toyota, R. Fukuda, 
 J. Hasegawa, M. Ishida, T. Nakajima, Y. Honda, O. Kitao, H. Nakai, 
 T. Vreven, K. Throssell, J. A. Montgomery, Jr., J. E. Peralta, 
 F. Ogliaro, M. J. Bearpark, J. J. Heyd, E. N. Brothers, K. N. Kudin, 
 V. N. Staroverov, T. A. Keith, R. Kobayashi, J. Normand, 
 K. Raghavachari, A. P. Rendell, J. C. Burant, S. S. Iyengar, 
 J. Tomasi, M. Cossi, J. M. Millam, M. Klene, C. Adamo, R. Cammi, 
 J. W. Ochterski, R. L. Martin, K. Morokuma, O. Farkas, 
 J. B. Foresman, and D. J. Fox, Gaussian, Inc., Wallingford CT, 2019.
 
 ******************************************
 Gaussian 16:  AS64L-G16RevC.01  3-Jul-2019
                 5-May-2025 
 ******************************************
 %mem=20GB
 %nprocshared=32
 Will use up to   32 processors via shared memory.
 %chk=2-6-diMe-phboh2-opt-freq.chk
 ----------------------------------------------------------------------
 # opt=(calcfc,tight) freq 6-311+g(d,p) nosymm scf=(qc,fermi,xqc) geom=
 connectivity int=ultrafine m062x
 ----------------------------------------------------------------------
 1/7=10,10=4,18=20,19=15,26=4,38=1,57=2/1,3;
 2/9=110,12=2,15=1,17=6,18=5,40=1/2;
 3/5=4,6=6,7=111,11=2,25=1,30=1,71=2,74=-55,75=-5,140=1/1,2,3;
 4//1;
 5/5=2,22=13,38=5/2;
 8/6=4,10=90,11=11/1;
 11/6=1,8=1,9=11,15=111,16=1,31=1/1,2,10;
 10/6=1,13=1,31=1/2;
 6/7=2,8=2,9=2,10=2,28=1/1;
 7/10=1,25=1,30=1/1,2,3,16;
 1/7=10,10=4,18=20,19=15,26=4/3(2);
 2/9=110,15=1/2;
 99//99;
 2/9=110,15=1/2;
 3/5=4,6=6,7=111,11=2,25=1,30=1,71=1,74=-55,75=-5/1,2,3;
 4/5=5,16=3,69=1/1;
 5/5=2,22=13,38=5/2;
 7/30=1/1,2,3,16;
 1/7=10,18=20,19=15,26=4/3(-5);
 2/9=110,15=1/2;
 6/7=2,8=2,9=2,10=2,19=2,28=1/1;
 99/9=1/99;
 ------------------------
 2-6-diMe-phboh2-opt-freq
 ------------------------
 Symbolic Z-matrix:
 Charge =  0 Multiplicity = 1
 O                     8.69919   7.4512    5.54335 
 H                     9.50873   7.13099   5.95119 
 C                     6.25061   6.9964    5.17743 
 B                     7.64701   6.61396   5.76968 
 O                     7.88538   5.48481   6.50782 
 H                     7.11269   4.93653   6.65196 
 C                     5.11878   6.18793   5.3174 
 C                     3.89081   6.55966   4.78262 
 H                     3.02788   5.91417   4.90925 
 C                     3.7533    7.75869   4.08318 
 C                     4.8782    8.57416   3.94017 
 H                     4.78783   9.51346   3.40385 
 C                     6.10288   8.19902   4.47485 
 H                     2.81582   8.04      3.65087 
 C                     7.32929   9.1147    4.30446 
 H                     7.70036   9.39678   5.2676 
 H                     8.09281   8.59195   3.76716 
 H                     7.04683   9.99158   3.76023 
 C                     5.19898   4.85002   6.07579 
 H                     5.9252    4.21817   5.60859 
 H                     5.48472   5.03194   7.09076 
 H                     4.24274   4.37035   6.05497 
 

 GradGradGradGradGradGradGradGradGradGradGradGradGradGradGradGradGradGrad
 Berny optimization.
 Initialization pass.
                           ----------------------------
                           !    Initial Parameters    !
                           ! (Angstroms and Degrees)  !
 --------------------------                            --------------------------
 ! Name  Definition              Value          Derivative Info.                !
 --------------------------------------------------------------------------------
 ! R1    R(1,2)                  0.9614         calculate D2E/DX2 analytically  !
 ! R2    R(1,4)                  1.3636         calculate D2E/DX2 analytically  !
 ! R3    R(3,4)                  1.5643         calculate D2E/DX2 analytically  !
 ! R4    R(3,7)                  1.3979         calculate D2E/DX2 analytically  !
 ! R5    R(3,13)                 1.4006         calculate D2E/DX2 analytically  !
 ! R6    R(4,5)                  1.3699         calculate D2E/DX2 analytically  !
 ! R7    R(5,6)                  0.9584         calculate D2E/DX2 analytically  !
 ! R8    R(7,8)                  1.39           calculate D2E/DX2 analytically  !
 ! R9    R(7,19)                 1.54           calculate D2E/DX2 analytically  !
 ! R10   R(8,9)                  1.0851         calculate D2E/DX2 analytically  !
 ! R11   R(8,10)                 1.3949         calculate D2E/DX2 analytically  !
 ! R12   R(10,11)                1.3967         calculate D2E/DX2 analytically  !
 ! R13   R(10,14)                1.07           calculate D2E/DX2 analytically  !
 ! R14   R(11,12)                1.0854         calculate D2E/DX2 analytically  !
 ! R15   R(11,13)                1.388          calculate D2E/DX2 analytically  !
 ! R16   R(13,15)                1.54           calculate D2E/DX2 analytically  !
 ! R17   R(15,16)                1.07           calculate D2E/DX2 analytically  !
 ! R18   R(15,17)                1.07           calculate D2E/DX2 analytically  !
 ! R19   R(15,18)                1.07           calculate D2E/DX2 analytically  !
 ! R20   R(19,20)                1.07           calculate D2E/DX2 analytically  !
 ! R21   R(19,21)                1.07           calculate D2E/DX2 analytically  !
 ! R22   R(19,22)                1.07           calculate D2E/DX2 analytically  !
 ! A1    A(2,1,4)              112.0147         calculate D2E/DX2 analytically  !
 ! A2    A(4,3,7)              122.9187         calculate D2E/DX2 analytically  !
 ! A3    A(4,3,13)             119.6037         calculate D2E/DX2 analytically  !
 ! A4    A(7,3,13)             117.4774         calculate D2E/DX2 analytically  !
 ! A5    A(1,4,3)              118.4163         calculate D2E/DX2 analytically  !
 ! A6    A(1,4,5)              117.4688         calculate D2E/DX2 analytically  !
 ! A7    A(3,4,5)              124.1148         calculate D2E/DX2 analytically  !
 ! A8    A(4,5,6)              114.3498         calculate D2E/DX2 analytically  !
 ! A9    A(3,7,8)              121.4718         calculate D2E/DX2 analytically  !
 ! A10   A(3,7,19)             120.636          calculate D2E/DX2 analytically  !
 ! A11   A(8,7,19)             117.8922         calculate D2E/DX2 analytically  !
 ! A12   A(7,8,9)              119.9072         calculate D2E/DX2 analytically  !
 ! A13   A(7,8,10)             120.6554         calculate D2E/DX2 analytically  !
 ! A14   A(9,8,10)             119.4374         calculate D2E/DX2 analytically  !
 ! A15   A(8,10,11)            118.2816         calculate D2E/DX2 analytically  !
 ! A16   A(8,10,14)            120.9933         calculate D2E/DX2 analytically  !
 ! A17   A(11,10,14)           120.7156         calculate D2E/DX2 analytically  !
 ! A18   A(10,11,12)           119.2614         calculate D2E/DX2 analytically  !
 ! A19   A(10,11,13)           120.8894         calculate D2E/DX2 analytically  !
 ! A20   A(12,11,13)           119.8491         calculate D2E/DX2 analytically  !
 ! A21   A(3,13,11)            121.2238         calculate D2E/DX2 analytically  !
 ! A22   A(3,13,15)            118.8189         calculate D2E/DX2 analytically  !
 ! A23   A(11,13,15)           119.9569         calculate D2E/DX2 analytically  !
 ! A24   A(13,15,16)           109.4712         calculate D2E/DX2 analytically  !
 ! A25   A(13,15,17)           109.4712         calculate D2E/DX2 analytically  !
 ! A26   A(13,15,18)           109.4712         calculate D2E/DX2 analytically  !
 ! A27   A(16,15,17)           109.4713         calculate D2E/DX2 analytically  !
 ! A28   A(16,15,18)           109.4712         calculate D2E/DX2 analytically  !
 ! A29   A(17,15,18)           109.4712         calculate D2E/DX2 analytically  !
 ! A30   A(7,19,20)            109.4712         calculate D2E/DX2 analytically  !
 ! A31   A(7,19,21)            109.4712         calculate D2E/DX2 analytically  !
 ! A32   A(7,19,22)            109.4712         calculate D2E/DX2 analytically  !
 ! A33   A(20,19,21)           109.4713         calculate D2E/DX2 analytically  !
 ! A34   A(20,19,22)           109.4712         calculate D2E/DX2 analytically  !
 ! A35   A(21,19,22)           109.4712         calculate D2E/DX2 analytically  !
 ! D1    D(2,1,4,3)            179.6965         calculate D2E/DX2 analytically  !
 ! D2    D(2,1,4,5)             -0.2543         calculate D2E/DX2 analytically  !
 ! D3    D(7,3,4,1)            178.0187         calculate D2E/DX2 analytically  !
 ! D4    D(7,3,4,5)             -2.0341         calculate D2E/DX2 analytically  !
 ! D5    D(13,3,4,1)            -2.1529         calculate D2E/DX2 analytically  !
 ! D6    D(13,3,4,5)           177.7943         calculate D2E/DX2 analytically  !
 ! D7    D(4,3,7,8)            179.767          calculate D2E/DX2 analytically  !
 ! D8    D(4,3,7,19)            -0.1869         calculate D2E/DX2 analytically  !
 ! D9    D(13,3,7,8)            -0.0648         calculate D2E/DX2 analytically  !
 ! D10   D(13,3,7,19)          179.9813         calculate D2E/DX2 analytically  !
 ! D11   D(4,3,13,11)         -179.7283         calculate D2E/DX2 analytically  !
 ! D12   D(4,3,13,15)            0.0498         calculate D2E/DX2 analytically  !
 ! D13   D(7,3,13,11)            0.1093         calculate D2E/DX2 analytically  !
 ! D14   D(7,3,13,15)          179.8874         calculate D2E/DX2 analytically  !
 ! D15   D(1,4,5,6)            179.0236         calculate D2E/DX2 analytically  !
 ! D16   D(3,4,5,6)             -0.9242         calculate D2E/DX2 analytically  !
 ! D17   D(3,7,8,9)           -179.796          calculate D2E/DX2 analytically  !
 ! D18   D(3,7,8,10)             0.1315         calculate D2E/DX2 analytically  !
 ! D19   D(19,7,8,9)             0.1592         calculate D2E/DX2 analytically  !
 ! D20   D(19,7,8,10)         -179.9134         calculate D2E/DX2 analytically  !
 ! D21   D(3,7,19,20)          -58.6891         calculate D2E/DX2 analytically  !
 ! D22   D(3,7,19,21)           61.311          calculate D2E/DX2 analytically  !
 ! D23   D(3,7,19,22)         -178.689          calculate D2E/DX2 analytically  !
 ! D24   D(8,7,19,20)          121.3554         calculate D2E/DX2 analytically  !
 ! D25   D(8,7,19,21)         -118.6446         calculate D2E/DX2 analytically  !
 ! D26   D(8,7,19,22)            1.3554         calculate D2E/DX2 analytically  !
 ! D27   D(7,8,10,11)           -0.2337         calculate D2E/DX2 analytically  !
 ! D28   D(7,8,10,14)          178.6471         calculate D2E/DX2 analytically  !
 ! D29   D(9,8,10,11)          179.6941         calculate D2E/DX2 analytically  !
 ! D30   D(9,8,10,14)           -1.4252         calculate D2E/DX2 analytically  !
 ! D31   D(8,10,11,12)        -179.6459         calculate D2E/DX2 analytically  !
 ! D32   D(8,10,11,13)           0.2787         calculate D2E/DX2 analytically  !
 ! D33   D(14,10,11,12)          1.4702         calculate D2E/DX2 analytically  !
 ! D34   D(14,10,11,13)       -178.6053         calculate D2E/DX2 analytically  !
 ! D35   D(10,11,13,3)          -0.2217         calculate D2E/DX2 analytically  !
 ! D36   D(10,11,13,15)       -179.9973         calculate D2E/DX2 analytically  !
 ! D37   D(12,11,13,3)         179.7024         calculate D2E/DX2 analytically  !
 ! D38   D(12,11,13,15)         -0.0731         calculate D2E/DX2 analytically  !
 ! D39   D(3,13,15,16)         -59.2434         calculate D2E/DX2 analytically  !
 ! D40   D(3,13,15,17)          60.7566         calculate D2E/DX2 analytically  !
 ! D41   D(3,13,15,18)        -179.2434         calculate D2E/DX2 analytically  !
 ! D42   D(11,13,15,16)        120.5375         calculate D2E/DX2 analytically  !
 ! D43   D(11,13,15,17)       -119.4625         calculate D2E/DX2 analytically  !
 ! D44   D(11,13,15,18)          0.5375         calculate D2E/DX2 analytically  !
 --------------------------------------------------------------------------------
 Trust Radius=3.00D-01 FncErr=1.00D-07 GrdErr=1.00D-06 EigMax=2.50D+02 EigMin=1.00D-04
 Number of steps in this run=    111 maximum allowed number of steps=    132.
 GradGradGradGradGradGradGradGradGradGradGradGradGradGradGradGradGradGrad

                          Input orientation:                          
 ---------------------------------------------------------------------
 Center     Atomic      Atomic             Coordinates (Angstroms)
 Number     Number       Type             X           Y           Z
 ---------------------------------------------------------------------
      1          8           0        8.699194    7.451204    5.543347
      2          1           0        9.508728    7.130989    5.951190
      3          6           0        6.250609    6.996402    5.177434
      4          5           0        7.647008    6.613959    5.769676
      5          8           0        7.885381    5.484812    6.507818
      6          1           0        7.112687    4.936526    6.651956
      7          6           0        5.118783    6.187926    5.317396
      8          6           0        3.890807    6.559656    4.782621
      9          1           0        3.027877    5.914169    4.909250
     10          6           0        3.753302    7.758692    4.083176
     11          6           0        4.878201    8.574164    3.940166
     12          1           0        4.787832    9.513461    3.403847
     13          6           0        6.102877    8.199016    4.474850
     14          1           0        2.815818    8.039997    3.650867
     15          6           0        7.329293    9.114696    4.304459
     16          1           0        7.700359    9.396776    5.267600
     17          1           0        8.092805    8.591951    3.767164
     18          1           0        7.046835    9.991581    3.760225
     19          6           0        5.198978    4.850017    6.075794
     20          1           0        5.925197    4.218172    5.608592
     21          1           0        5.484716    5.031940    7.090761
     22          1           0        4.242742    4.370352    6.054967
 ---------------------------------------------------------------------
                    Distance matrix (angstroms):
                    1          2          3          4          5
     1  O    0.000000
     2  H    0.961363   0.000000
     3  C    2.517202   3.351440   0.000000
     4  B    1.363561   1.940688   1.564271   0.000000
     5  O    2.336492   2.378022   2.593705   1.369908   0.000000
     6  H    3.173267   3.323816   2.675908   1.969187   0.958358
     7  C    3.803455   4.534609   1.397946   2.603456   3.092820
     8  C    4.949156   5.766542   2.432137   3.884105   4.481988
     9  H    5.910025   6.675906   3.410154   4.750412   5.131775
    10  C    5.166091   6.083454   2.831083   4.394956   5.303159
    11  C    4.293159   5.250595   2.429747   3.854323   5.017974
    12  H    4.912140   5.869582   3.408946   4.709474   5.954785
    13  C    2.905473   3.862652   1.400618   2.563849   3.831081
    14  H    6.208242   7.135322   3.900934   5.464735   6.355439
    15  C    2.485695   3.375908   2.532354   2.915731   4.282532
    16  H    2.204304   2.978470   2.805655   2.828250   4.108021
    17  H    2.196324   2.984831   2.815728   2.849779   4.148316
    18  H    3.516153   4.363970   3.407866   3.975730   5.344473
    19  C    4.393311   4.877736   2.553419   3.032829   2.793988
    20  H    4.260494   4.630720   2.830257   2.954721   2.501061
    21  H    4.310475   4.679455   2.847195   2.987232   2.511595
    22  H    5.441817   5.946637   3.420195   4.087076   3.836133
                    6          7          8          9         10
     6  H    0.000000
     7  C    2.706050   0.000000
     8  C    4.063185   1.389997   0.000000
     9  H    4.547360   2.147886   1.085051   0.000000
    10  C    5.084164   2.419740   1.394926   2.147302   0.000000
    11  C    5.057583   2.765642   2.396439   3.382070   1.396726
    12  H    6.074825   3.851023   3.380922   4.280021   2.147313
    13  C    4.050105   2.392239   2.770465   3.855497   2.422353
    14  H    6.091072   3.392806   2.151251   2.479444   1.070000
    15  C    4.797371   3.805047   4.310459   5.395491   3.830852
    16  H    4.706977   4.118705   4.774636   5.838584   4.434574
    17  H    4.758654   4.126423   4.776836   5.841950   4.430065
    18  H    5.824090   4.539819   4.773250   5.839312   3.992173
    19  C    2.000432   1.540000   2.511270   2.684572   3.810630
    20  H    1.736310   2.148263   3.209910   3.429279   4.424851
    21  H    1.688770   2.148263   3.194052   3.401966   4.413449
    22  H    2.985554   2.148263   2.556516   2.274189   3.950741
                   11         12         13         14         15
    11  C    0.000000
    12  H    1.085396   0.000000
    13  C    1.387968   2.145730   0.000000
    14  H    2.149989   2.474056   3.392491   0.000000
    15  C    2.536284   2.725645   1.540000   4.685469   0.000000
    16  H    3.225423   3.459770   2.148263   5.321036   1.070000
    17  H    3.219305   3.450221   2.148263   5.307049   1.070000
    18  H    2.597003   2.336386   2.148263   4.660702   1.070000
    19  C    4.305006   5.390367   3.820452   4.662156   5.085603
    20  H    4.780640   5.847614   4.142954   5.301630   5.258156
    21  H    4.779274   5.844913   4.153972   5.291908   5.275873
    22  H    4.748497   5.811809   4.540434   4.613253   5.924515
                   16         17         18         19         20
    16  H    0.000000
    17  H    1.747303   0.000000
    18  H    1.747303   1.747303   0.000000
    19  C    5.251962   5.263657   5.933980   0.000000
    20  H    5.485018   5.217215   6.164965   1.070000   0.000000
    21  H    5.223484   5.524682   6.175008   1.070000   1.747303
    22  H    6.151423   6.154586   6.687824   1.070000   1.747303
                   21         22
    21  H    0.000000
    22  H    1.747303   0.000000
 Symmetry turned off by external request.
 Stoichiometry    C8H11BO2
 Framework group  C1[X(C8H11BO2)]
 Deg. of freedom    60
 Full point group                 C1      NOp   1
 Rotational constants (GHZ):           1.5103115           1.1081604           0.6442887
 Standard basis: 6-311+G(d,p) (5D, 7F)
   308 basis functions,   484 primitive gaussians,   319 cartesian basis functions
    40 alpha electrons       40 beta electrons
       nuclear repulsion energy       588.7042446742 Hartrees.
 NAtoms=   22 NActive=   22 NUniq=   22 SFac= 1.00D+00 NAtFMM=   60 NAOKFM=F Big=F
 Integral buffers will be    131072 words long.
 Raffenetti 2 integral format.
 Two-electron integral symmetry is turned off.
 One-electron integrals computed using PRISM.
 NBasis=   308 RedAO= T EigKep=  1.16D-06  NBF=   308
 NBsUse=   307 1.00D-06 EigRej=  9.64D-07 NBFU=   307
 ExpMin= 3.15D-02 ExpMax= 8.59D+03 ExpMxC= 1.30D+03 IAcc=3 IRadAn=         5 AccDes= 0.00D+00
 Harris functional with IExCor= 1009 and IRadAn=       5 diagonalized for initial guess.
 HarFok:  IExCor= 1009 AccDes= 0.00D+00 IRadAn=         5 IDoV= 1 UseB2=F ITyADJ=14
 ICtDFT=  3500011 ScaDFX=  1.000000  1.000000  1.000000  1.000000
 FoFCou: FMM=F IPFlag=           0 FMFlag=      100000 FMFlg1=           0
         NFxFlg=           0 DoJE=T BraDBF=F KetDBF=T FulRan=T
         wScrn=  0.000000 ICntrl=       500 IOpCl=  0 I1Cent=   200000004 NGrid=           0
         NMat0=    1 NMatS0=      1 NMatT0=    0 NMatD0=    1 NMtDS0=    0 NMtDT0=    0
 Symmetry not used in FoFCou.
 Requested convergence on RMS density matrix=1.00D-08 within 128 cycles.
 Requested convergence on MAX density matrix=1.00D-06.
 Requested convergence on             energy=1.00D-06.
 Level shift goal  0.100 maximum shift  0.100.
 No special actions if energy rises.
 Dynamic level shift is on during FON iterations.
 SCF Done:  E(RM062X) =  -486.818970540     A.U. after   14 cycles
            NFock= 14  Conv=0.84D-08     -V/T= 2.0032
 DoSCS=F DFT=T ScalE2(SS,OS)=  1.000000  1.000000
 Range of M.O.s used for correlation:     1   307
 NBasis=   308 NAE=    40 NBE=    40 NFC=     0 NFV=     0
 NROrb=    307 NOA=    40 NOB=    40 NVA=   267 NVB=   267

 **** Warning!!: The largest alpha MO coefficient is  0.29133659D+03

 Symmetrizing basis deriv contribution to polar:
 IMax=3 JMax=2 DiffMx= 0.00D+00
 G2DrvN: will do    23 centers at a time, making    1 passes.
 Calling FoFCou, ICntrl=  3107 FMM=F I1Cent=   0 AccDes= 0.00D+00.
 End of G2Drv F.D. properties file   721 does not exist.
 End of G2Drv F.D. properties file   722 does not exist.
 End of G2Drv F.D. properties file   788 does not exist.
          IDoAtm=1111111111111111111111
          Differentiating once with respect to nuclear coordinates.
 Keep R1 ints in memory in canonical form, NReq=1169003790.
          There are    69 degrees of freedom in the 1st order CPHF.  IDoFFX=6 NUNeed=     0.
     63 vectors produced by pass  0 Test12= 1.55D-14 1.45D-09 XBig12= 1.73D-01 1.18D-01.
 AX will form    63 AO Fock derivatives at one time.
     63 vectors produced by pass  1 Test12= 1.55D-14 1.45D-09 XBig12= 1.20D-02 2.84D-02.
     63 vectors produced by pass  2 Test12= 1.55D-14 1.45D-09 XBig12= 2.89D-04 3.52D-03.
     63 vectors produced by pass  3 Test12= 1.55D-14 1.45D-09 XBig12= 2.40D-06 1.69D-04.
     63 vectors produced by pass  4 Test12= 1.55D-14 1.45D-09 XBig12= 1.54D-08 1.20D-05.
     63 vectors produced by pass  5 Test12= 1.55D-14 1.45D-09 XBig12= 6.69D-11 7.85D-07.
     51 vectors produced by pass  6 Test12= 1.55D-14 1.45D-09 XBig12= 2.35D-13 4.99D-08.
      8 vectors produced by pass  7 Test12= 1.55D-14 1.45D-09 XBig12= 8.66D-16 2.64D-09.
 InvSVY:  IOpt=1 It=  1 EMax= 6.11D-16
 Solved reduced A of dimension   437 with    69 vectors.
 End of Minotr F.D. properties file   721 does not exist.
 End of Minotr F.D. properties file   722 does not exist.
 End of Minotr F.D. properties file   788 does not exist.

 **********************************************************************

            Population analysis using the SCF Density.

 **********************************************************************

 Alpha  occ. eigenvalues --  -19.62949 -19.62750 -10.55837 -10.55027 -10.54603
 Alpha  occ. eigenvalues --  -10.54523 -10.53934 -10.53581 -10.52211 -10.50761
 Alpha  occ. eigenvalues --   -7.08066  -1.16678  -1.13051  -0.96629  -0.88365
 Alpha  occ. eigenvalues --   -0.85857  -0.79478  -0.76887  -0.69286  -0.65567
 Alpha  occ. eigenvalues --   -0.65328  -0.61778  -0.57385  -0.54924  -0.51936
 Alpha  occ. eigenvalues --   -0.51774  -0.48898  -0.48845  -0.47799  -0.47146
 Alpha  occ. eigenvalues --   -0.46047  -0.45993  -0.44731  -0.41806  -0.41081
 Alpha  occ. eigenvalues --   -0.39990  -0.38466  -0.37094  -0.30525  -0.29439
 Alpha virt. eigenvalues --   -0.00463   0.00205   0.01396   0.01881   0.02574
 Alpha virt. eigenvalues --    0.03217   0.03305   0.03826   0.04261   0.06455
 Alpha virt. eigenvalues --    0.06468   0.06673   0.07177   0.08388   0.09926
 Alpha virt. eigenvalues --    0.10044   0.10361   0.10827   0.11627   0.12304
 Alpha virt. eigenvalues --    0.12848   0.13895   0.14075   0.15208   0.16387
 Alpha virt. eigenvalues --    0.16441   0.16476   0.17353   0.17639   0.18121
 Alpha virt. eigenvalues --    0.18506   0.19461   0.20181   0.20691   0.20941
 Alpha virt. eigenvalues --    0.22052   0.22293   0.22617   0.22900   0.23338
 Alpha virt. eigenvalues --    0.25233   0.25499   0.26051   0.26182   0.26277
 Alpha virt. eigenvalues --    0.26961   0.27091   0.28132   0.28658   0.29135
 Alpha virt. eigenvalues --    0.29810   0.30272   0.30453   0.31622   0.32970
 Alpha virt. eigenvalues --    0.34795   0.35110   0.35944   0.36668   0.38645
 Alpha virt. eigenvalues --    0.39129   0.41542   0.42114   0.42395   0.43894
 Alpha virt. eigenvalues --    0.44689   0.45921   0.46623   0.48258   0.50954
 Alpha virt. eigenvalues --    0.52002   0.53914   0.55584   0.56790   0.58020
 Alpha virt. eigenvalues --    0.58798   0.60093   0.61483   0.62749   0.63647
 Alpha virt. eigenvalues --    0.63982   0.64442   0.65352   0.67701   0.68381
 Alpha virt. eigenvalues --    0.68689   0.69329   0.69388   0.70275   0.71508
 Alpha virt. eigenvalues --    0.72570   0.72746   0.73474   0.75228   0.77049
 Alpha virt. eigenvalues --    0.77520   0.78381   0.80463   0.81067   0.81720
 Alpha virt. eigenvalues --    0.83163   0.86387   0.87979   0.88472   0.89339
 Alpha virt. eigenvalues --    0.91807   0.94162   0.96219   0.96877   0.97612
 Alpha virt. eigenvalues --    0.98325   1.01755   1.03230   1.03535   1.05216
 Alpha virt. eigenvalues --    1.05941   1.08492   1.09689   1.10937   1.11523
 Alpha virt. eigenvalues --    1.11810   1.13235   1.13874   1.14193   1.20190
 Alpha virt. eigenvalues --    1.21531   1.23333   1.32728   1.34683   1.36128
 Alpha virt. eigenvalues --    1.39369   1.40896   1.41652   1.43828   1.45009
 Alpha virt. eigenvalues --    1.46266   1.47169   1.50016   1.53739   1.54051
 Alpha virt. eigenvalues --    1.57232   1.57503   1.58378   1.60014   1.60491
 Alpha virt. eigenvalues --    1.61822   1.62708   1.62880   1.63130   1.64412
 Alpha virt. eigenvalues --    1.67583   1.71108   1.73472   1.74100   1.74977
 Alpha virt. eigenvalues --    1.75584   1.77710   1.79364   1.80514   1.80781
 Alpha virt. eigenvalues --    1.84265   1.87032   1.88831   1.90698   1.91363
 Alpha virt. eigenvalues --    1.92969   1.94714   1.95334   1.95770   1.96641
 Alpha virt. eigenvalues --    1.99517   1.99850   2.04822   2.05463   2.07352
 Alpha virt. eigenvalues --    2.07865   2.12137   2.14555   2.20244   2.20332
 Alpha virt. eigenvalues --    2.21618   2.26942   2.28126   2.31358   2.31853
 Alpha virt. eigenvalues --    2.32408   2.38799   2.43690   2.44431   2.44835
 Alpha virt. eigenvalues --    2.53075   2.53712   2.55462   2.56179   2.56347
 Alpha virt. eigenvalues --    2.57206   2.62246   2.65238   2.65399   2.68358
 Alpha virt. eigenvalues --    2.68529   2.69207   2.71335   2.72606   2.74413
 Alpha virt. eigenvalues --    2.74685   2.75443   2.76707   2.78945   2.79372
 Alpha virt. eigenvalues --    2.81110   2.83734   2.89523   2.91364   2.93055
 Alpha virt. eigenvalues --    2.95859   2.99938   3.00540   3.05004   3.08862
 Alpha virt. eigenvalues --    3.11097   3.12979   3.17795   3.23605   3.24526
 Alpha virt. eigenvalues --    3.26410   3.29040   3.30406   3.37356   3.44779
 Alpha virt. eigenvalues --    3.46169   3.49501   3.57368   3.59671   3.64942
 Alpha virt. eigenvalues --    3.69408   3.74629   3.77566   3.88786   3.91777
 Alpha virt. eigenvalues --    3.92182   3.96116   3.97252   4.01616   4.09345
 Alpha virt. eigenvalues --    4.17673   4.21712   4.35158   4.36780   4.89058
 Alpha virt. eigenvalues --    5.09843   5.11381   5.43504   5.51653   5.71453
 Alpha virt. eigenvalues --    5.78994  14.83283  23.67390  24.00458  24.04194
 Alpha virt. eigenvalues --   24.10153  24.11666  24.17820  24.20413  24.26921
 Alpha virt. eigenvalues --   50.03405  50.07535
          Condensed to atoms (all electrons):
               1          2          3          4          5          6
     1  O    8.032603   0.255993  -0.011904   0.433099  -0.119516   0.015162
     2  H    0.255993   0.421678   0.013569  -0.015469  -0.022932   0.003399
     3  C   -0.011904   0.013569  15.062794   0.635716  -0.024545  -0.001279
     4  B    0.433099  -0.015469   0.635716   3.407080   0.412557  -0.019787
     5  O   -0.119516  -0.022932  -0.024545   0.412557   7.999103   0.274534
     6  H    0.015162   0.003399  -0.001279  -0.019787   0.274534   0.406872
     7  C   -0.043132   0.002538  -6.996118  -0.249495  -0.014470  -0.030200
     8  C    0.021975   0.000361   3.485170   0.139062  -0.013013   0.039650
     9  H   -0.000035  -0.000001  -0.051295  -0.000311   0.000195  -0.000038
    10  C   -0.004102   0.000354  -2.393028  -0.062457  -0.003620   0.003994
    11  C    0.076208  -0.011913   3.884505   0.179414   0.025854  -0.007591
    12  H    0.000392   0.000004  -0.047234  -0.000714  -0.000039   0.000000
    13  C   -0.088242   0.005176  -5.966127  -0.238198  -0.042178   0.018035
    14  H   -0.000001   0.000000  -0.016721   0.000107   0.000004   0.000001
    15  C   -0.120211   0.008905  -0.222885  -0.066850   0.000540   0.001356
    16  H   -0.032689  -0.000689  -0.028743   0.001931   0.000180   0.000054
    17  H   -0.028695   0.000125  -0.027789  -0.000713   0.000199   0.000035
    18  H    0.011039   0.000093  -0.020906   0.001298   0.000034  -0.000007
    19  C    0.017965   0.004295  -0.004223  -0.020676  -0.035110  -0.009337
    20  H   -0.001230  -0.000027   0.026432  -0.006325   0.008917  -0.007036
    21  H   -0.000642  -0.000052  -0.037639  -0.003183  -0.003585   0.005200
    22  H    0.000096  -0.000001  -0.049125   0.002736   0.002035   0.002018
               7          8          9         10         11         12
     1  O   -0.043132   0.021975  -0.000035  -0.004102   0.076208   0.000392
     2  H    0.002538   0.000361  -0.000001   0.000354  -0.011913   0.000004
     3  C   -6.996118   3.485170  -0.051295  -2.393028   3.884505  -0.047234
     4  B   -0.249495   0.139062  -0.000311  -0.062457   0.179414  -0.000714
     5  O   -0.014470  -0.013013   0.000195  -0.003620   0.025854  -0.000039
     6  H   -0.030200   0.039650  -0.000038   0.003994  -0.007591   0.000000
     7  C   14.647461  -5.086844   0.150481   2.373029  -3.000530   0.045713
     8  C   -5.086844   9.852909   0.154842  -1.759457   2.183349  -0.064741
     9  H    0.150481   0.154842   0.517505   0.094635  -0.071043  -0.000238
    10  C    2.373029  -1.759457   0.094635   7.291933  -2.050250   0.073706
    11  C   -3.000530   2.183349  -0.071043  -2.050250  10.678308   0.165093
    12  H    0.045713  -0.064741  -0.000238   0.073706   0.165093   0.511928
    13  C    4.881527  -2.723224   0.048888   2.425124  -5.288742   0.149427
    14  H   -0.017958   0.033767  -0.006311   0.318112   0.036366  -0.006372
    15  C   -0.345251  -0.017457   0.001556  -0.029669  -0.366647   0.018516
    16  H    0.025225   0.000213  -0.000002  -0.000990  -0.018880   0.000129
    17  H    0.023864  -0.000203  -0.000002  -0.000874  -0.020819   0.000127
    18  H   -0.002570   0.001439  -0.000001   0.032338   0.030587   0.002285
    19  C   -1.393076   0.407105   0.011030  -0.354224   0.295712   0.001103
    20  H    0.070792  -0.093721   0.000132   0.008597  -0.009209  -0.000001
    21  H    0.091338  -0.060556   0.000215   0.006688  -0.009109  -0.000001
    22  H   -0.179123   0.130600   0.003558   0.026724   0.009008  -0.000002
              13         14         15         16         17         18
     1  O   -0.088242  -0.000001  -0.120211  -0.032689  -0.028695   0.011039
     2  H    0.005176   0.000000   0.008905  -0.000689   0.000125   0.000093
     3  C   -5.966127  -0.016721  -0.222885  -0.028743  -0.027789  -0.020906
     4  B   -0.238198   0.000107  -0.066850   0.001931  -0.000713   0.001298
     5  O   -0.042178   0.000004   0.000540   0.000180   0.000199   0.000034
     6  H    0.018035   0.000001   0.001356   0.000054   0.000035  -0.000007
     7  C    4.881527  -0.017958  -0.345251   0.025225   0.023864  -0.002570
     8  C   -2.723224   0.033767  -0.017457   0.000213  -0.000203   0.001439
     9  H    0.048888  -0.006311   0.001556  -0.000002  -0.000002  -0.000001
    10  C    2.425124   0.318112  -0.029669  -0.000990  -0.000874   0.032338
    11  C   -5.288742   0.036366  -0.366647  -0.018880  -0.020819   0.030587
    12  H    0.149427  -0.006372   0.018516   0.000129   0.000127   0.002285
    13  C   13.083553  -0.011554  -0.564418   0.065712   0.064471  -0.136304
    14  H   -0.011554   0.504529   0.004904   0.000006   0.000007  -0.000014
    15  C   -0.564418   0.004904   7.139151   0.336835   0.342494   0.462651
    16  H    0.065712   0.000006   0.336835   0.516512  -0.023117  -0.029035
    17  H    0.064471   0.000007   0.342494  -0.023117   0.510011  -0.030092
    18  H   -0.136304  -0.000014   0.462651  -0.029035  -0.030092   0.517407
    19  C   -0.645956   0.003502  -0.063819   0.001268   0.001217  -0.000700
    20  H    0.007501   0.000008   0.001490   0.000006  -0.000026   0.000000
    21  H    0.029258   0.000007   0.002390  -0.000032   0.000004   0.000000
    22  H    0.001452  -0.000023  -0.000891   0.000000   0.000000   0.000000
              19         20         21         22
     1  O    0.017965  -0.001230  -0.000642   0.000096
     2  H    0.004295  -0.000027  -0.000052  -0.000001
     3  C   -0.004223   0.026432  -0.037639  -0.049125
     4  B   -0.020676  -0.006325  -0.003183   0.002736
     5  O   -0.035110   0.008917  -0.003585   0.002035
     6  H   -0.009337  -0.007036   0.005200   0.002018
     7  C   -1.393076   0.070792   0.091338  -0.179123
     8  C    0.407105  -0.093721  -0.060556   0.130600
     9  H    0.011030   0.000132   0.000215   0.003558
    10  C   -0.354224   0.008597   0.006688   0.026724
    11  C    0.295712  -0.009209  -0.009109   0.009008
    12  H    0.001103  -0.000001  -0.000001  -0.000002
    13  C   -0.645956   0.007501   0.029258   0.001452
    14  H    0.003502   0.000008   0.000007  -0.000023
    15  C   -0.063819   0.001490   0.002390  -0.000891
    16  H    0.001268   0.000006  -0.000032   0.000000
    17  H    0.001217  -0.000026   0.000004   0.000000
    18  H   -0.000700   0.000000   0.000000   0.000000
    19  C    7.372766   0.342933   0.332283   0.432005
    20  H    0.342933   0.529045  -0.048172  -0.015487
    21  H    0.332283  -0.048172   0.532255  -0.017415
    22  H    0.432005  -0.015487  -0.017415   0.467338
 Mulliken charges:
               1
     1  O   -0.414131
     2  H    0.334593
     3  C   -1.208626
     4  B    0.471179
     5  O   -0.445145
     6  H    0.304966
     7  C    1.046798
     8  C   -0.631228
     9  H    0.146241
    10  C    0.003437
    11  C   -0.709671
    12  H    0.150918
    13  C    0.924817
    14  H    0.157636
    15  C   -0.522689
    16  H    0.186105
    17  H    0.189775
    18  H    0.160458
    19  C   -0.696062
    20  H    0.185382
    21  H    0.180749
    22  H    0.184498
 Sum of Mulliken charges =   0.00000
 Mulliken charges with hydrogens summed into heavy atoms:
               1
     1  O   -0.079538
     3  C   -1.208626
     4  B    0.471179
     5  O   -0.140179
     7  C    1.046798
     8  C   -0.484987
    10  C    0.161073
    11  C   -0.558753
    13  C    0.924817
    15  C    0.013649
    19  C   -0.145432
 APT charges:
               1
     1  O   -0.535403
     2  H    1.963415
     3  C    1.939952
     4  B   -0.618531
     5  O    1.335109
     6  H   -1.408722
     7  C   -2.596252
     8  C   -0.127851
     9  H   -0.739032
    10  C    0.002533
    11  C   -2.067629
    12  H    1.071754
    13  C    2.477550
    14  H   -0.176994
    15  C   -3.066619
    16  H    1.480033
    17  H    0.024177
    18  H    0.785251
    19  C   -0.539398
    20  H    0.206976
    21  H    1.384810
    22  H   -0.795127
 Sum of APT charges =   0.00000
 APT charges with hydrogens summed into heavy atoms:
               1
     1  O    1.428011
     3  C    1.939952
     4  B   -0.618531
     5  O   -0.073613
     7  C   -2.596252
     8  C   -0.866883
    10  C   -0.174461
    11  C   -0.995875
    13  C    2.477550
    15  C   -0.777157
    19  C    0.257260
 Electronic spatial extent (au):  <R**2>=          34222.7465
 Charge=              0.0000 electrons
 Dipole moment (field-independent basis, Debye):
    X=             -0.8051    Y=             -1.0539    Z=              0.4214  Tot=              1.3916
 Quadrupole moment (field-independent basis, Debye-Ang):
   XX=            -70.5274   YY=            -77.5629   ZZ=            -62.6019
   XY=             -9.9929   XZ=             -0.4087   YZ=             -5.3494
 Traceless Quadrupole moment (field-independent basis, Debye-Ang):
   XX=             -0.2967   YY=             -7.3321   ZZ=              7.6288
   XY=             -9.9929   XZ=             -0.4087   YZ=             -5.3494
 Octapole moment (field-independent basis, Debye-Ang**2):
  XXX=          -1186.2709  YYY=          -1492.2588  ZZZ=           -985.1303  XYY=           -490.6497
  XXY=           -510.0134  XXZ=           -332.4062  XZZ=           -389.9777  YZZ=           -497.2090
  YYZ=           -416.7985  XYZ=            -32.8507
 Hexadecapole moment (field-independent basis, Debye-Ang**3):
 XXXX=         -14898.9756 YYYY=         -21227.3744 ZZZZ=         -10486.8158 XXXY=          -8373.1967
 XXXZ=          -5943.3544 YYYX=          -9250.4827 YYYZ=          -7739.2282 ZZZX=          -6140.9727
 ZZZY=          -7096.4629 XXYY=          -6447.7342 XXZZ=          -4280.3988 YYZZ=          -5726.4797
 XXYZ=          -2327.5623 YYXZ=          -2478.7675 ZZXY=          -2942.0263
 N-N= 5.887042446742D+02 E-N=-2.313182097352D+03  KE= 4.852487975199D+02
  Exact polarizability:       0.000       0.000       0.000       0.000       0.000       0.000
 Approx polarizability:     155.215       5.687     137.865      14.180     -24.859     108.261
 Calling FoFJK, ICntrl=    100127 FMM=F ISym2X=0 I1Cent= 0 IOpClX= 0 NMat=1 NMatS=1 NMatT=0.
 -------------------------------------------------------------------
 Center     Atomic                   Forces (Hartrees/Bohr)
 Number     Number              X              Y              Z
 -------------------------------------------------------------------
      1        8           0.011399930   -0.011446960    0.009034538
      2        1           0.000086748   -0.002313094    0.001236679
      3        6          -0.002988850    0.000642288   -0.001405264
      4        5          -0.001218167   -0.004944720    0.002401666
      5        8           0.005901624    0.002245173    0.000685854
      6        1           0.008239381    0.002646500    0.000548804
      7        6          -0.002778011   -0.019485459    0.010738785
      8        6          -0.005257668    0.004819456   -0.004152917
      9        1           0.000777573   -0.000618719    0.000161217
     10        6           0.020063176   -0.004793452    0.006877408
     11        6          -0.010695297   -0.000485144   -0.002616648
     12        1           0.001347035   -0.000399630    0.000176975
     13        6           0.021620026    0.015765123   -0.002017031
     14        1          -0.008706186    0.002728938   -0.002786245
     15        6          -0.033584614   -0.005438558   -0.006066433
     16        1           0.006117256    0.005464820    0.007885763
     17        1           0.009569556   -0.001828756   -0.005698549
     18        1          -0.004908071    0.012414492   -0.007909044
     19        6          -0.008759422    0.026605408   -0.018305323
     20        1           0.006081156   -0.013564543   -0.008125741
     21        1          -0.002047581    0.000209592    0.017541780
     22        1          -0.010259592   -0.008222756    0.001793725
 -------------------------------------------------------------------
 Cartesian Forces:  Max     0.033584614 RMS     0.009593142
 FormGI is forming the generalized inverse of G from B-inverse, IUseBI=4.

 GradGradGradGradGradGradGradGradGradGradGradGradGradGradGradGradGradGrad
 Berny optimization.
 Internal  Forces:  Max     0.045104316 RMS     0.011455469
 Search for a local minimum.
 Step number   1 out of a maximum of  111
 All quantities printed in internal units (Hartrees-Bohrs-Radians)
 Mixed Optimization -- RFO/linear search
 Second derivative matrix not updated -- analytic derivatives used.
 ITU=  0
     Eigenvalues ---   -0.01578  -0.00161   0.00523   0.00900   0.01740
     Eigenvalues ---    0.01759   0.01826   0.02087   0.02089   0.02391
     Eigenvalues ---    0.02571   0.02696   0.02966   0.03431   0.04908
     Eigenvalues ---    0.05876   0.05937   0.06579   0.07292   0.10244
     Eigenvalues ---    0.10876   0.10924   0.12092   0.12146   0.12191
     Eigenvalues ---    0.12617   0.14070   0.14212   0.14792   0.15249
     Eigenvalues ---    0.16980   0.18098   0.18202   0.18762   0.19007
     Eigenvalues ---    0.20489   0.24589   0.27017   0.28221   0.28660
     Eigenvalues ---    0.34718   0.36020   0.36325   0.37583   0.38549
     Eigenvalues ---    0.38746   0.38951   0.38999   0.39350   0.39396
     Eigenvalues ---    0.39498   0.42600   0.46563   0.47669   0.48589
     Eigenvalues ---    0.51562   0.55025   0.55113   0.84839   1.69985
 RFO step:  Lambda=-1.92676826D-02 EMin=-1.57770677D-02
 Linear search not attempted -- first point.
 Iteration  1 RMS(Cart)=  0.15559539 RMS(Int)=  0.03035477
 Iteration  2 RMS(Cart)=  0.07217896 RMS(Int)=  0.00294302
 Iteration  3 RMS(Cart)=  0.00444825 RMS(Int)=  0.00033438
 Iteration  4 RMS(Cart)=  0.00001140 RMS(Int)=  0.00033427
 Iteration  5 RMS(Cart)=  0.00000000 RMS(Int)=  0.00033427
 Variable       Old X    -DE/DX   Delta X   Delta X   Delta X     New X
                                 (Linear)    (Quad)   (Total)
    R1        1.81671   0.00137   0.00000   0.00144   0.00144   1.81815
    R2        2.57676  -0.00129   0.00000   0.00708   0.00708   2.58384
    R3        2.95604   0.03043   0.00000   0.02328   0.02328   2.97933
    R4        2.64173   0.02919   0.00000   0.02976   0.02982   2.67156
    R5        2.64678   0.03845   0.00000   0.02776   0.02775   2.67454
    R6        2.58875  -0.00091   0.00000   0.00234   0.00234   2.59110
    R7        1.81103  -0.00808   0.00000  -0.00523  -0.00523   1.80580
    R8        2.62671  -0.00012   0.00000   0.00646   0.00653   2.63324
    R9        2.91018  -0.00864   0.00000  -0.04402  -0.04402   2.86616
   R10        2.05045  -0.00023   0.00000  -0.00107  -0.00107   2.04938
   R11        2.63603  -0.01232   0.00000  -0.01527  -0.01526   2.62077
   R12        2.63943  -0.01289   0.00000  -0.02080  -0.02086   2.61857
   R13        2.02201   0.00947   0.00000   0.02413   0.02413   2.04614
   R14        2.05110  -0.00055   0.00000  -0.00182  -0.00182   2.04928
   R15        2.62288   0.00356   0.00000   0.01259   0.01252   2.63540
   R16        2.91018  -0.01055   0.00000  -0.05117  -0.05117   2.85901
   R17        2.02201   0.01066   0.00000   0.03807   0.03807   2.06008
   R18        2.02201   0.01058   0.00000   0.02993   0.02993   2.05193
   R19        2.02201   0.01549   0.00000   0.03512   0.03512   2.05713
   R20        2.02201   0.01569   0.00000   0.03417   0.03417   2.05618
   R21        2.02201   0.01613   0.00000   0.04868   0.04868   2.07069
   R22        2.02201   0.01282   0.00000   0.03322   0.03322   2.05523
    A1        1.95503  -0.00405   0.00000  -0.02395  -0.02395   1.93107
    A2        2.14534  -0.00912   0.00000  -0.01156  -0.01170   2.13364
    A3        2.08748   0.02516   0.00000   0.00001  -0.00010   2.08737
    A4        2.05037  -0.01604   0.00000   0.01146   0.01121   2.06158
    A5        2.06675   0.02325   0.00000   0.02174   0.02173   2.08848
    A6        2.05022  -0.03388   0.00000  -0.04777  -0.04778   2.00244
    A7        2.16621   0.01063   0.00000   0.02604   0.02603   2.19224
    A8        1.99578   0.00572   0.00000   0.01773   0.01773   2.01351
    A9        2.12008   0.00186   0.00000  -0.01773  -0.01814   2.10195
   A10        2.10550   0.02411   0.00000   0.04225   0.04173   2.14723
   A11        2.05761  -0.02597   0.00000  -0.02448  -0.02489   2.03272
   A12        2.09278  -0.00359   0.00000  -0.00836  -0.00835   2.08443
   A13        2.10583   0.00528   0.00000   0.00286   0.00281   2.10865
   A14        2.08458  -0.00169   0.00000   0.00550   0.00551   2.09009
   A15        2.06440   0.00535   0.00000   0.01930   0.01915   2.08356
   A16        2.11173  -0.00301   0.00000  -0.01254  -0.01248   2.09926
   A17        2.10688  -0.00233   0.00000  -0.00689  -0.00682   2.10006
   A18        2.08150  -0.00296   0.00000   0.00768   0.00776   2.08926
   A19        2.10992   0.00850   0.00000   0.00451   0.00423   2.11415
   A20        2.09176  -0.00554   0.00000  -0.01217  -0.01209   2.07967
   A21        2.11576  -0.00496   0.00000  -0.02037  -0.02054   2.09521
   A22        2.07378   0.04510   0.00000   0.06774   0.06782   2.14160
   A23        2.09364  -0.04015   0.00000  -0.04736  -0.04728   2.04637
   A24        1.91063   0.00535   0.00000   0.03426   0.03403   1.94466
   A25        1.91063   0.00524   0.00000   0.03019   0.02997   1.94060
   A26        1.91063  -0.00361   0.00000   0.00079   0.00063   1.91127
   A27        1.91063  -0.00327   0.00000  -0.04709  -0.04737   1.86326
   A28        1.91063  -0.00188   0.00000  -0.01006  -0.01021   1.90042
   A29        1.91063  -0.00184   0.00000  -0.00808  -0.00822   1.90242
   A30        1.91063   0.00412   0.00000   0.04305   0.04194   1.95258
   A31        1.91063   0.00407   0.00000   0.03492   0.03419   1.94482
   A32        1.91063   0.00153   0.00000   0.01064   0.01036   1.92100
   A33        1.91063   0.00104   0.00000  -0.00665  -0.00805   1.90258
   A34        1.91063  -0.00511   0.00000  -0.00474  -0.00535   1.90528
   A35        1.91063  -0.00565   0.00000  -0.07722  -0.07711   1.83352
    D1        3.13630   0.00028   0.00000   0.00094   0.00086   3.13716
    D2       -0.00444  -0.00003   0.00000  -0.00582  -0.00574  -0.01018
    D3        3.10701  -0.00090   0.00000  -0.31610  -0.31635   2.79066
    D4       -0.03550  -0.00059   0.00000  -0.30890  -0.30902  -0.34452
    D5       -0.03758  -0.00078   0.00000  -0.35124  -0.35112  -0.38870
    D6        3.10310  -0.00047   0.00000  -0.34403  -0.34378   2.75931
    D7        3.13753   0.00030   0.00000  -0.05463  -0.05464   3.08288
    D8       -0.00326   0.00010   0.00000  -0.11136  -0.11196  -0.11522
    D9       -0.00113   0.00012   0.00000  -0.02018  -0.02035  -0.02148
   D10        3.14127  -0.00008   0.00000  -0.07691  -0.07767   3.06360
   D11       -3.13685  -0.00022   0.00000   0.08121   0.08097  -3.05588
   D12        0.00087  -0.00031   0.00000   0.08361   0.08359   0.08446
   D13        0.00191  -0.00010   0.00000   0.04792   0.04759   0.04950
   D14        3.13963  -0.00019   0.00000   0.05032   0.05021  -3.09334
   D15        3.12455   0.00006   0.00000  -0.08971  -0.08977   3.03478
   D16       -0.01613  -0.00028   0.00000  -0.09688  -0.09682  -0.11295
   D17       -3.13803  -0.00012   0.00000  -0.01810  -0.01752   3.12763
   D18        0.00229  -0.00013   0.00000  -0.02365  -0.02332  -0.02102
   D19        0.00278   0.00010   0.00000   0.03715   0.03618   0.03896
   D20       -3.14008   0.00009   0.00000   0.03161   0.03039  -3.10969
   D21       -1.02432  -0.00275   0.00000   0.24496   0.24489  -0.77943
   D22        1.07008   0.00354   0.00000   0.28456   0.28538   1.35546
   D23       -3.11871   0.00005   0.00000   0.21788   0.21782  -2.90089
   D24        2.11805  -0.00295   0.00000   0.19021   0.18968   2.30773
   D25       -2.07074   0.00333   0.00000   0.22982   0.23018  -1.84056
   D26        0.02366  -0.00015   0.00000   0.16314   0.16262   0.18628
   D27       -0.00408   0.00010   0.00000   0.03958   0.03956   0.03548
   D28        3.11798   0.00051   0.00000   0.03208   0.03229  -3.13292
   D29        3.13625   0.00008   0.00000   0.03405   0.03374  -3.11319
   D30       -0.02487   0.00050   0.00000   0.02655   0.02647   0.00159
   D31       -3.13541  -0.00007   0.00000  -0.02865  -0.02847   3.11931
   D32        0.00486  -0.00005   0.00000  -0.01199  -0.01165  -0.00679
   D33        0.02566  -0.00048   0.00000  -0.02111  -0.02112   0.00454
   D34       -3.11725  -0.00046   0.00000  -0.00445  -0.00431  -3.12156
   D35       -0.00387   0.00006   0.00000  -0.03245  -0.03230  -0.03617
   D36       -3.14155  -0.00003   0.00000  -0.03512  -0.03503   3.10661
   D37        3.13640   0.00009   0.00000  -0.01567  -0.01556   3.12084
   D38       -0.00128  -0.00001   0.00000  -0.01835  -0.01829  -0.01957
   D39       -1.03399  -0.00122   0.00000  -0.01664  -0.01678  -1.05077
   D40        1.06040   0.00127   0.00000  -0.03485  -0.03488   1.02552
   D41       -3.12839   0.00002   0.00000  -0.02578  -0.02588   3.12891
   D42        2.10378  -0.00123   0.00000  -0.01422  -0.01417   2.08960
   D43       -2.08501   0.00126   0.00000  -0.03243  -0.03228  -2.11729
   D44        0.00938   0.00001   0.00000  -0.02336  -0.02328  -0.01390
         Item               Value     Threshold  Converged?
 Maximum Force            0.045104     0.000015     NO 
 RMS     Force            0.011455     0.000010     NO 
 Maximum Displacement     1.078436     0.000060     NO 
 RMS     Displacement     0.213047     0.000040     NO 
 Predicted change in Energy=-1.499770D-02
 GradGradGradGradGradGradGradGradGradGradGradGradGradGradGradGradGradGrad

                          Input orientation:                          
 ---------------------------------------------------------------------
 Center     Atomic      Atomic             Coordinates (Angstroms)
 Number     Number       Type             X           Y           Z
 ---------------------------------------------------------------------
      1          8           0        8.808709    7.193968    5.334709
      2          1           0        9.579414    6.874244    5.813742
      3          6           0        6.275186    6.983228    5.174684
      4          5           0        7.668739    6.605840    5.808111
      5          8           0        7.866679    5.705700    6.823304
      6          1           0        7.071371    5.357613    7.222640
      7          6           0        5.138886    6.151765    5.301624
      8          6           0        3.908376    6.554698    4.786650
      9          1           0        3.050293    5.898358    4.881628
     10          6           0        3.767724    7.785595    4.163378
     11          6           0        4.876455    8.603595    4.016018
     12          1           0        4.776759    9.558082    3.511035
     13          6           0        6.128432    8.213549    4.490683
     14          1           0        2.805617    8.093320    3.773451
     15          6           0        7.287325    9.153707    4.241680
     16          1           0        7.737889    9.486693    5.176845
     17          1           0        8.072693    8.666265    3.671909
     18          1           0        6.937123   10.024166    3.689706
     19          6           0        5.191197    4.769791    5.924371
     20          1           0        6.045007    4.196830    5.568490
     21          1           0        5.229070    4.824699    7.018099
     22          1           0        4.277087    4.224751    5.700399
 ---------------------------------------------------------------------
                    Distance matrix (angstroms):
                    1          2          3          4          5
     1  O    0.000000
     2  H    0.962124   0.000000
     3  C    2.547304   3.367223   0.000000
     4  B    1.367310   1.929443   1.576591   0.000000
     5  O    2.306139   2.306115   2.623523   1.371149   0.000000
     6  H    3.155126   3.251989   2.733250   1.978840   0.955588
     7  C    3.815087   4.527972   1.413726   2.619708   3.155209
     8  C    4.972153   5.772148   2.436391   3.896964   4.531768
     9  H    5.919733   6.667128   3.415078   4.763290   5.196614
    10  C    5.208989   6.109828   2.820266   4.394870   5.310612
    11  C    4.380481   5.323560   2.434040   3.872915   5.021961
    12  H    5.017115   5.964137   3.412167   4.728196   5.946392
    13  C    2.989283   3.931094   1.415304   2.587063   3.840825
    14  H    6.267653   7.178667   3.903034   5.477444   6.373122
    15  C    2.711069   3.594579   2.570195   3.015097   4.346169
    16  H    2.535383   3.259102   2.899456   2.950016   4.125933
    17  H    2.339718   3.173168   2.884783   2.995311   4.328819
    18  H    3.770794   4.627660   3.448278   4.087524   5.415963
    19  C    4.394397   4.867998   2.576114   3.085904   2.973586
    20  H    4.083570   4.440803   2.823487   2.915005   2.677637
    21  H    4.610971   4.957479   3.025192   3.254000   2.787668
    22  H    5.430062   5.928518   3.446443   4.145417   4.042190
                    6          7          8          9         10
     6  H    0.000000
     7  C    2.838218   0.000000
     8  C    4.167925   1.393451   0.000000
     9  H    4.684208   2.145420   1.084485   0.000000
    10  C    5.115492   2.417661   1.386852   2.142954   0.000000
    11  C    5.063248   2.780849   2.393540   3.376752   1.385686
    12  H    6.056830   3.865273   3.376626   4.272328   2.141358
    13  C    4.063138   2.426475   2.787119   3.871419   2.421408
    14  H    6.130062   3.398395   2.147094   2.470988   1.082769
    15  C    4.831468   3.840694   4.297574   5.381382   3.776964
    16  H    4.656052   4.229909   4.838804   5.910740   4.436559
    17  H    4.955553   4.193555   4.800302   5.860821   4.421524
    18  H    5.854601   4.563707   4.734322   5.792272   3.909048
    19  C    2.359257   1.516708   2.475061   2.635231   3.771265
    20  H    2.266507   2.171186   3.276585   3.512162   4.476560
    21  H    1.928707   2.171526   3.117129   3.234860   4.364844
    22  H    3.377664   2.148279   2.529730   2.230777   3.911712
                   11         12         13         14         15
    11  C    0.000000
    12  H    1.084431   0.000000
    13  C    1.394592   2.143477   0.000000
    14  H    2.146530   2.469775   3.401466   0.000000
    15  C    2.483111   2.645809   1.512922   4.629187   0.000000
    16  H    3.211726   3.398280   2.163808   5.313973   1.090147
    17  H    3.215318   3.418244   2.157659   5.299119   1.085836
    18  H    2.524054   2.217279   2.138662   4.561197   1.088584
    19  C    4.294057   5.378074   3.846211   4.622045   5.142365
    20  H    4.816147   5.880867   4.159647   5.375728   5.279623
    21  H    4.839100   5.908384   4.322151   5.204301   5.539425
    22  H    4.729763   5.786830   4.560855   4.565543   5.956845
                   16         17         18         19         20
    16  H    0.000000
    17  H    1.746433   0.000000
    18  H    1.772480   1.770235   0.000000
    19  C    5.412356   5.344072   5.970799   0.000000
    20  H    5.567935   5.261595   6.187370   1.088084   0.000000
    21  H    5.605228   5.834450   6.405474   1.095760   1.778015
    22  H    6.319754   6.184532   6.689685   1.087579   1.773053
                   21         22
    21  H    0.000000
    22  H    1.732784   0.000000
 Symmetry turned off by external request.
 Stoichiometry    C8H11BO2
 Framework group  C1[X(C8H11BO2)]
 Deg. of freedom    60
 Full point group                 C1      NOp   1
 Rotational constants (GHZ):           1.4836042           1.0783184           0.6390644
 Standard basis: 6-311+G(d,p) (5D, 7F)
   308 basis functions,   484 primitive gaussians,   319 cartesian basis functions
    40 alpha electrons       40 beta electrons
       nuclear repulsion energy       583.9635693856 Hartrees.
 NAtoms=   22 NActive=   22 NUniq=   22 SFac= 1.00D+00 NAtFMM=   60 NAOKFM=F Big=F
 Integral buffers will be    131072 words long.
 Raffenetti 2 integral format.
 Two-electron integral symmetry is turned off.
 One-electron integrals computed using PRISM.
 NBasis=   308 RedAO= T EigKep=  1.21D-06  NBF=   308
 NBsUse=   308 1.00D-06 EigRej= -1.00D+00 NBFU=   308
 Initial guess from the checkpoint file:  "2-6-diMe-phboh2-opt-freq.chk"
 B after Tr=    -0.121030   -0.044631    0.238987
         Rot=    0.999970    0.006369   -0.002341    0.003725 Ang=   0.89 deg.
 ExpMin= 3.15D-02 ExpMax= 8.59D+03 ExpMxC= 1.30D+03 IAcc=3 IRadAn=         5 AccDes= 0.00D+00
 Harris functional with IExCor= 1009 and IRadAn=       5 diagonalized for initial guess.
 HarFok:  IExCor= 1009 AccDes= 0.00D+00 IRadAn=         5 IDoV= 1 UseB2=F ITyADJ=14
 ICtDFT=  3500011 ScaDFX=  1.000000  1.000000  1.000000  1.000000
 FoFCou: FMM=F IPFlag=           0 FMFlag=      100000 FMFlg1=           0
         NFxFlg=           0 DoJE=T BraDBF=F KetDBF=T FulRan=T
         wScrn=  0.000000 ICntrl=       500 IOpCl=  0 I1Cent=   200000004 NGrid=           0
         NMat0=    1 NMatS0=      1 NMatT0=    0 NMatD0=    1 NMtDS0=    0 NMtDT0=    0
 Symmetry not used in FoFCou.
 Requested convergence on RMS density matrix=1.00D-08 within 128 cycles.
 Requested convergence on MAX density matrix=1.00D-06.
 Requested convergence on             energy=1.00D-06.
 Level shift goal  0.100 maximum shift  0.100.
 No special actions if energy rises.
 Dynamic level shift is on during FON iterations.
 SCF Done:  E(RM062X) =  -486.830964662     A.U. after   15 cycles
            NFock= 15  Conv=0.32D-08     -V/T= 2.0038
 Calling FoFJK, ICntrl=      2127 FMM=F ISym2X=0 I1Cent= 0 IOpClX= 0 NMat=1 NMatS=1 NMatT=0.
 -------------------------------------------------------------------
 Center     Atomic                   Forces (Hartrees/Bohr)
 Number     Number              X              Y              Z
 -------------------------------------------------------------------
      1        8           0.000838136   -0.002391223    0.000874913
      2        1           0.000092078   -0.000070889    0.000257550
      3        6          -0.002053379    0.001544370    0.001177430
      4        5           0.001816340   -0.001645769   -0.003386548
      5        8           0.000046161    0.001380048    0.001180114
      6        1          -0.001663738   -0.000909578   -0.000203529
      7        6           0.000536470   -0.003356049   -0.001873349
      8        6          -0.000890818    0.001537878    0.000616055
      9        1           0.000173597   -0.000253972   -0.000227246
     10        6           0.000932369   -0.000884847   -0.000073761
     11        6          -0.000658895   -0.000374840   -0.001172200
     12        1           0.000141420   -0.000141128   -0.000098385
     13        6           0.002255920    0.001733593    0.001041944
     14        1          -0.000852135    0.000416944    0.000108868
     15        6          -0.003647552    0.000675016    0.000774577
     16        1           0.000631521    0.000559729    0.000177390
     17        1           0.001187871   -0.000274130   -0.001426166
     18        1          -0.000064682    0.001494064   -0.000070507
     19        6          -0.000502861    0.005229978    0.003624206
     20        1           0.000892041   -0.001955192    0.000033264
     21        1           0.000873449   -0.000541959    0.000965932
     22        1          -0.000083312   -0.001772045   -0.002300550
 -------------------------------------------------------------------
 Cartesian Forces:  Max     0.005229978 RMS     0.001501582

 GradGradGradGradGradGradGradGradGradGradGradGradGradGradGradGradGradGrad
 Berny optimization.
 Using GEDIIS/GDIIS optimizer.
 FormGI is forming the generalized inverse of G from B-inverse, IUseBI=4.
 Internal  Forces:  Max     0.008798216 RMS     0.001824275
 Search for a local minimum.
 Step number   2 out of a maximum of  111
 All quantities printed in internal units (Hartrees-Bohrs-Radians)
 Mixed Optimization -- RFO/linear search
 Update second derivatives using D2CorX and points    1    2
 DE= -1.20D-02 DEPred=-1.50D-02 R= 8.00D-01
 TightC=F SS=  1.41D+00  RLast= 9.28D-01 DXNew= 5.0454D-01 2.7826D+00
 Trust test= 8.00D-01 RLast= 9.28D-01 DXMaxT set to 5.05D-01
 ITU=  1  0
 Use linear search instead of GDIIS.
     Eigenvalues ---   -0.13596  -0.00180   0.00522   0.00900   0.01738
     Eigenvalues ---    0.01756   0.01826   0.02079   0.02089   0.02387
     Eigenvalues ---    0.02569   0.02693   0.02949   0.03383   0.04873
     Eigenvalues ---    0.05865   0.05889   0.06406   0.07243   0.08271
     Eigenvalues ---    0.10265   0.10897   0.11079   0.12090   0.12148
     Eigenvalues ---    0.12421   0.13830   0.14219   0.14775   0.14880
     Eigenvalues ---    0.16590   0.17205   0.18170   0.18659   0.18818
     Eigenvalues ---    0.19023   0.23234   0.25916   0.27028   0.28548
     Eigenvalues ---    0.28905   0.34884   0.36020   0.36347   0.37604
     Eigenvalues ---    0.38551   0.38752   0.38994   0.39008   0.39370
     Eigenvalues ---    0.39494   0.42588   0.46559   0.47537   0.48461
     Eigenvalues ---    0.51546   0.53389   0.55106   0.56225   1.60662
 RFO step:  Lambda=-1.35976826D-01 EMin=-1.35956028D-01
 I=     1 Eig=   -1.36D-01 Dot1= -1.01D-03
 I=     1 Stepn= -6.00D-01 RXN=   6.00D-01 EDone=F
 I=     2 Eig=   -1.80D-03 Dot1=  6.15D-04
 I=     2 Stepn=  3.00D-01 RXN=   6.71D-01 EDone=F
 Mixed    2 eigenvectors in step.  Raw Step.Grad=  1.62D-03.
 RFO eigenvector is Hessian eigenvector with negative curvature.
 Taking step of  6.00D-01 in eigenvector direction(s).  Step.Grad= -3.54D-03.
 Quartic linear search produced a step of  0.08408.
 Iteration  1 RMS(Cart)=  0.17957118 RMS(Int)=  0.01194479
 Iteration  2 RMS(Cart)=  0.02236375 RMS(Int)=  0.00063344
 Iteration  3 RMS(Cart)=  0.00041468 RMS(Int)=  0.00060102
 Iteration  4 RMS(Cart)=  0.00000023 RMS(Int)=  0.00060102
 Variable       Old X    -DE/DX   Delta X   Delta X   Delta X     New X
                                 (Linear)    (Quad)   (Total)
    R1        1.81815   0.00022   0.00012  -0.00242  -0.00230   1.81585
    R2        2.58384  -0.00067   0.00060  -0.00529  -0.00469   2.57915
    R3        2.97933   0.00136   0.00196  -0.06682  -0.06486   2.91447
    R4        2.67156  -0.00016   0.00251  -0.06871  -0.06619   2.60537
    R5        2.67454   0.00376   0.00233  -0.07172  -0.06932   2.60522
    R6        2.59110   0.00018   0.00020  -0.00440  -0.00421   2.58689
    R7        1.80580   0.00163  -0.00044   0.01234   0.01190   1.81770
    R8        2.63324   0.00018   0.00055  -0.01012  -0.00961   2.62363
    R9        2.86616   0.00012  -0.00370   0.05296   0.04926   2.91542
   R10        2.04938   0.00000  -0.00009   0.00145   0.00136   2.05074
   R11        2.62077  -0.00061  -0.00128   0.03188   0.03051   2.65128
   R12        2.61857   0.00030  -0.00175   0.03695   0.03517   2.65374
   R13        2.04614   0.00084   0.00203  -0.04318  -0.04115   2.00499
   R14        2.04928  -0.00009  -0.00015   0.00310   0.00295   2.05223
   R15        2.63540   0.00122   0.00105  -0.01964  -0.01852   2.61688
   R16        2.85901   0.00016  -0.00430   0.06497   0.06067   2.91968
   R17        2.06008   0.00058   0.00320  -0.05439  -0.05119   2.00889
   R18        2.05193   0.00173   0.00252  -0.06352  -0.06100   1.99093
   R19        2.05713   0.00125   0.00295  -0.06455  -0.06159   1.99553
   R20        2.05618   0.00172   0.00287  -0.07666  -0.07378   1.98240
   R21        2.07069   0.00097   0.00409  -0.07101  -0.06691   2.00377
   R22        2.05523   0.00143   0.00279  -0.05781  -0.05502   2.00021
    A1        1.93107  -0.00023  -0.00201   0.02543   0.02342   1.95449
    A2        2.13364  -0.00880  -0.00098   0.01880   0.01765   2.15129
    A3        2.08737   0.00830  -0.00001  -0.02387  -0.02406   2.06331
    A4        2.06158   0.00050   0.00094   0.00617   0.00699   2.06857
    A5        2.08848   0.00618   0.00183  -0.05368  -0.05208   2.03640
    A6        2.00244  -0.00058  -0.00402   0.09361   0.08931   2.09175
    A7        2.19224  -0.00561   0.00219  -0.04013  -0.03816   2.15408
    A8        2.01351  -0.00098   0.00149  -0.02674  -0.02525   1.98826
    A9        2.10195   0.00051  -0.00152   0.01901   0.01732   2.11927
   A10        2.14723  -0.00226   0.00351  -0.08300  -0.07947   2.06776
   A11        2.03272   0.00178  -0.00209   0.06330   0.06107   2.09380
   A12        2.08443  -0.00007  -0.00070   0.01415   0.01351   2.09793
   A13        2.10865  -0.00021   0.00024  -0.01081  -0.01071   2.09794
   A14        2.09009   0.00027   0.00046  -0.00337  -0.00285   2.08724
   A15        2.08356   0.00043   0.00161  -0.02526  -0.02379   2.05977
   A16        2.09926  -0.00024  -0.00105   0.01520   0.01421   2.11346
   A17        2.10006  -0.00018  -0.00057   0.01027   0.00975   2.10981
   A18        2.08926  -0.00045   0.00065  -0.00283  -0.00220   2.08706
   A19        2.11415   0.00110   0.00036  -0.01606  -0.01565   2.09850
   A20        2.07967  -0.00065  -0.00102   0.01891   0.01785   2.09753
   A21        2.09521  -0.00230  -0.00173   0.02784   0.02595   2.12117
   A22        2.14160   0.00565   0.00570  -0.12783  -0.12231   2.01930
   A23        2.04637  -0.00335  -0.00398   0.09995   0.09559   2.14195
   A24        1.94466   0.00073   0.00286  -0.04046  -0.03787   1.90679
   A25        1.94060   0.00039   0.00252  -0.02954  -0.02728   1.91332
   A26        1.91127   0.00036   0.00005   0.00556   0.00558   1.91685
   A27        1.86326  -0.00029  -0.00398   0.03680   0.03230   1.89556
   A28        1.90042  -0.00082  -0.00086   0.01749   0.01659   1.91701
   A29        1.90242  -0.00044  -0.00069   0.01243   0.01173   1.91414
   A30        1.95258   0.00109   0.00353  -0.03242  -0.02950   1.92308
   A31        1.94482   0.00098   0.00287  -0.04228  -0.04025   1.90457
   A32        1.92100  -0.00012   0.00087  -0.01183  -0.01119   1.90981
   A33        1.90258  -0.00119  -0.00068   0.01359   0.01172   1.91429
   A34        1.90528  -0.00165  -0.00045   0.06395   0.06350   1.96879
   A35        1.83352   0.00079  -0.00648   0.01438   0.00739   1.84091
    D1        3.13716  -0.00009   0.00007   0.04022   0.04099  -3.10503
    D2       -0.01018  -0.00009  -0.00048   0.00270   0.00151  -0.00866
    D3        2.79066  -0.00095  -0.02660  -0.22804  -0.25391   2.53675
    D4       -0.34452  -0.00098  -0.02598  -0.18659  -0.21333  -0.55785
    D5       -0.38870  -0.00097  -0.02952  -0.19286  -0.22162  -0.61032
    D6        2.75931  -0.00099  -0.02891  -0.15140  -0.18104   2.57827
    D7        3.08288   0.00064  -0.00459   0.07080   0.06721  -3.13310
    D8       -0.11522   0.00133  -0.00941   0.05793   0.04981  -0.06541
    D9       -0.02148   0.00049  -0.00171   0.03674   0.03547   0.01399
   D10        3.06360   0.00118  -0.00653   0.02387   0.01808   3.08167
   D11       -3.05588  -0.00052   0.00681  -0.05932  -0.05232  -3.10820
   D12        0.08446  -0.00056   0.00703  -0.10140  -0.09211  -0.00765
   D13        0.04950  -0.00074   0.00400  -0.02527  -0.02133   0.02818
   D14       -3.09334  -0.00078   0.00422  -0.06735  -0.06111   3.12873
   D15        3.03478   0.00065  -0.00755  -0.02166  -0.02842   3.00636
   D16       -0.11295   0.00070  -0.00814  -0.06177  -0.07070  -0.18365
   D17        3.12763  -0.00007  -0.00147  -0.01318  -0.01493   3.11270
   D18       -0.02102   0.00000  -0.00196  -0.01878  -0.02074  -0.04177
   D19        0.03896  -0.00059   0.00304   0.00340   0.00714   0.04610
   D20       -3.10969  -0.00052   0.00256  -0.00220   0.00133  -3.10836
   D21       -0.77943  -0.00030   0.02059   0.03941   0.05963  -0.71980
   D22        1.35546  -0.00034   0.02400   0.00314   0.02752   1.38298
   D23       -2.90089   0.00115   0.01832  -0.01179   0.00685  -2.89404
   D24        2.30773   0.00033   0.01595   0.02591   0.04126   2.34900
   D25       -1.84056   0.00029   0.01935  -0.01036   0.00916  -1.83141
   D26        0.18628   0.00178   0.01367  -0.02529  -0.01151   0.17476
   D27        0.03548  -0.00032   0.00333  -0.01154  -0.00845   0.02704
   D28       -3.13292   0.00015   0.00271  -0.00265   0.00007  -3.13285
   D29       -3.11319  -0.00025   0.00284  -0.01709  -0.01416  -3.12735
   D30        0.00159   0.00021   0.00223  -0.00820  -0.00564  -0.00405
   D31        3.11931   0.00033  -0.00239   0.02310   0.02135   3.14066
   D32       -0.00679   0.00015  -0.00098   0.02157   0.02072   0.01394
   D33        0.00454  -0.00013  -0.00178   0.01413   0.01279   0.01732
   D34       -3.12156  -0.00032  -0.00036   0.01260   0.01215  -3.10940
   D35       -0.03617   0.00042  -0.00272  -0.00300  -0.00615  -0.04232
   D36        3.10661   0.00046  -0.00295   0.03699   0.03662  -3.13995
   D37        3.12084   0.00024  -0.00131  -0.00433  -0.00661   3.11423
   D38       -0.01957   0.00027  -0.00154   0.03566   0.03617   0.01660
   D39       -1.05077   0.00018  -0.00141   0.10957   0.10774  -0.94304
   D40        1.02552   0.00056  -0.00293   0.10968   0.10673   1.13225
   D41        3.12891   0.00050  -0.00218   0.10998   0.10757  -3.04670
   D42        2.08960   0.00015  -0.00119   0.06855   0.06738   2.15698
   D43       -2.11729   0.00052  -0.00271   0.06866   0.06637  -2.05092
   D44       -0.01390   0.00046  -0.00196   0.06896   0.06721   0.05331
         Item               Value     Threshold  Converged?
 Maximum Force            0.008798     0.000015     NO 
 RMS     Force            0.001824     0.000010     NO 
 Maximum Displacement     0.755817     0.000060     NO 
 RMS     Displacement     0.189186     0.000040     NO 
 Predicted change in Energy=-2.132479D-02
 GradGradGradGradGradGradGradGradGradGradGradGradGradGradGradGradGradGrad

                          Input orientation:                          
 ---------------------------------------------------------------------
 Center     Atomic      Atomic             Coordinates (Angstroms)
 Number     Number       Type             X           Y           Z
 ---------------------------------------------------------------------
      1          8           0        8.686997    7.048052    5.014146
      2          1           0        9.512645    6.761800    5.413781
      3          6           0        6.215611    6.991725    5.157353
      4          5           0        7.601839    6.633233    5.730461
      5          8           0        7.778853    5.890382    6.866590
      6          1           0        6.970418    5.744211    7.366876
      7          6           0        5.113790    6.171303    5.274447
      8          6           0        3.885262    6.527743    4.734793
      9          1           0        3.037701    5.854822    4.815318
     10          6           0        3.727894    7.766705    4.095566
     11          6           0        4.850628    8.604149    3.994550
     12          1           0        4.757679    9.568536    3.503939
     13          6           0        6.072947    8.195877    4.501410
     14          1           0        2.793460    8.056744    3.685176
     15          6           0        7.343835    9.071024    4.423503
     16          1           0        7.729922    9.216354    5.403254
     17          1           0        8.074887    8.582440    3.843132
     18          1           0        7.109904   10.004355    3.988436
     19          6           0        5.292617    4.789703    5.937283
     20          1           0        6.186848    4.346344    5.614379
     21          1           0        5.313604    4.909851    6.990595
     22          1           0        4.442689    4.191102    5.738167
 ---------------------------------------------------------------------
                    Distance matrix (angstroms):
                    1          2          3          4          5
     1  O    0.000000
     2  H    0.960908   0.000000
     3  C    2.476172   3.314974   0.000000
     4  B    1.364826   1.941133   1.542269   0.000000
     5  O    2.365687   2.424058   2.564794   1.368923   0.000000
     6  H    3.190922   3.363478   2.647266   1.966446   0.961883
     7  C    3.688395   4.440499   1.378700   2.571326   3.117113
     8  C    4.837915   5.673028   2.413373   3.849081   4.484511
     9  H    5.777359   6.565491   3.392441   4.719615   5.165995
    10  C    5.094404   6.017547   2.813668   4.354892   5.254467
    11  C    4.263653   5.209881   2.411473   3.803558   4.918093
    12  H    4.906435   5.842513   3.391062   4.654315   5.827840
    13  C    2.900630   3.836733   1.378622   2.507973   3.717458
    14  H    6.125145   7.057790   3.874622   5.415725   6.298306
    15  C    2.499072   3.319172   2.476875   2.778044   4.034153
    16  H    2.401860   3.033653   2.702329   2.606911   3.633984
    17  H    2.024920   2.801574   2.777491   2.754122   4.059077
    18  H    3.504145   4.280063   3.352920   3.826371   5.065179
    19  C    4.180207   4.687414   2.511794   2.962074   2.873408
    20  H    3.729644   4.115287   2.684723   2.691753   2.546873
    21  H    4.456235   4.852628   2.916949   3.129537   2.655988
    22  H    5.167254   5.693695   3.365128   3.993030   3.910355
                    6          7          8          9         10
     6  H    0.000000
     7  C    2.829794   0.000000
     8  C    4.130372   1.388365   0.000000
     9  H    4.689237   2.149676   1.085203   0.000000
    10  C    5.030499   2.419871   1.402998   2.156318   0.000000
    11  C    4.903605   2.761545   2.406524   3.393990   1.404297
    12  H    5.868898   3.847429   3.394487   4.297641   2.158026
    13  C    3.876470   2.369910   2.760998   3.846011   2.418300
    14  H    6.029072   3.385942   2.152109   2.487033   1.060995
    15  C    4.457642   3.755741   4.304290   5.388902   3.857955
    16  H    4.060596   4.016601   4.738870   5.801940   4.452838
    17  H    4.657485   4.078032   4.750768   5.810188   4.430067
    18  H    5.438947   4.508945   4.800229   5.872410   4.056667
    19  C    2.402048   1.542773   2.539176   2.734581   3.834426
    20  H    2.374712   2.144174   3.290816   3.582057   4.477959
    21  H    1.892822   2.139241   3.121919   3.287026   4.365465
    22  H    3.384413   2.141637   2.603339   2.365081   3.999251
                   11         12         13         14         15
    11  C    0.000000
    12  H    1.085993   0.000000
    13  C    1.384795   2.146875   0.000000
    14  H    2.151118   2.485261   3.382401   0.000000
    15  C    2.572557   2.789501   1.545026   4.720149   0.000000
    16  H    3.263369   3.544807   2.144822   5.353984   1.063059
    17  H    3.227885   3.477255   2.142550   5.309875   1.053557
    18  H    2.657996   2.440827   2.146861   4.745192   1.055990
    19  C    4.303436   5.389301   3.777919   4.689492   4.982844
    20  H    4.747445   5.811004   4.008812   5.385534   5.007934
    21  H    4.778961   5.845440   4.191732   5.213430   5.294068
    22  H    4.762520   5.831620   4.497281   4.677384   5.827403
                   16         17         18         19         20
    16  H    0.000000
    17  H    1.718961   0.000000
    18  H    1.734093   1.724572   0.000000
    19  C    5.081426   5.148917   5.856034   0.000000
    20  H    5.112988   4.964525   5.958927   1.049039   0.000000
    21  H    5.186928   5.569481   6.180099   1.060350   1.724548
    22  H    6.014252   6.005653   6.630951   1.058465   1.755424
                   21         22
    21  H    0.000000
    22  H    1.686318   0.000000
 Symmetry turned off by external request.
 Stoichiometry    C8H11BO2
 Framework group  C1[X(C8H11BO2)]
 Deg. of freedom    60
 Full point group                 C1      NOp   1
 Rotational constants (GHZ):           1.5454214           1.1021411           0.6731572
 Standard basis: 6-311+G(d,p) (5D, 7F)
   308 basis functions,   484 primitive gaussians,   319 cartesian basis functions
    40 alpha electrons       40 beta electrons
       nuclear repulsion energy       592.1274404347 Hartrees.
 NAtoms=   22 NActive=   22 NUniq=   22 SFac= 1.00D+00 NAtFMM=   60 NAOKFM=F Big=F
 Integral buffers will be    131072 words long.
 Raffenetti 2 integral format.
 Two-electron integral symmetry is turned off.
 One-electron integrals computed using PRISM.
 NBasis=   308 RedAO= T EigKep=  1.14D-06  NBF=   308
 NBsUse=   308 1.00D-06 EigRej= -1.00D+00 NBFU=   308
 Initial guess from the checkpoint file:  "2-6-diMe-phboh2-opt-freq.chk"
 B after Tr=    -0.186720   -0.037323    0.164946
         Rot=    0.999980    0.003973   -0.004698    0.001772 Ang=   0.73 deg.
 ExpMin= 3.15D-02 ExpMax= 8.59D+03 ExpMxC= 1.30D+03 IAcc=3 IRadAn=         5 AccDes= 0.00D+00
 Harris functional with IExCor= 1009 and IRadAn=       5 diagonalized for initial guess.
 HarFok:  IExCor= 1009 AccDes= 0.00D+00 IRadAn=         5 IDoV= 1 UseB2=F ITyADJ=14
 ICtDFT=  3500011 ScaDFX=  1.000000  1.000000  1.000000  1.000000
 FoFCou: FMM=F IPFlag=           0 FMFlag=      100000 FMFlg1=           0
         NFxFlg=           0 DoJE=T BraDBF=F KetDBF=T FulRan=T
         wScrn=  0.000000 ICntrl=       500 IOpCl=  0 I1Cent=   200000004 NGrid=           0
         NMat0=    1 NMatS0=      1 NMatT0=    0 NMatD0=    1 NMtDS0=    0 NMtDT0=    0
 Symmetry not used in FoFCou.
 Requested convergence on RMS density matrix=1.00D-08 within 128 cycles.
 Requested convergence on MAX density matrix=1.00D-06.
 Requested convergence on             energy=1.00D-06.
 Level shift goal  0.100 maximum shift  0.100.
 No special actions if energy rises.
 Dynamic level shift is on during FON iterations.
 SCF Done:  E(RM062X) =  -486.811475725     A.U. after   14 cycles
            NFock= 14  Conv=0.54D-08     -V/T= 2.0028
 Calling FoFJK, ICntrl=      2127 FMM=F ISym2X=0 I1Cent= 0 IOpClX= 0 NMat=1 NMatS=1 NMatT=0.
 -------------------------------------------------------------------
 Center     Atomic                   Forces (Hartrees/Bohr)
 Number     Number              X              Y              Z
 -------------------------------------------------------------------
[...]
 ,-0.00072338,0.00047078,0.00465774,-0.01266208,0.00834420,0.02619082,-
 0.28131367,0.11588728,-0.02561442,0.29681811,-0.00021907,-0.00011229,0
 .00006288,0.00000502,-0.00000258,0.00000575,-0.00347376,0.00231411,0.0
 0452138,0.00059931,0.00031217,0.00018667,-0.00012454,0.00005424,-0.000
 25987,-0.00000528,0.00000267,0.00005968,-0.00022386,-0.00071921,-0.000
 51833,-0.00075927,0.00200836,0.00630363,-0.00014365,0.00010473,0.00017
 864,-0.00118473,0.00111110,0.00227765,-0.01775712,0.11567032,-0.093172
 12,0.02069316,-0.12777347,0.08797701,-0.00168796,-0.00290826,0.0010791
 7,-0.00024017,-0.00071804,-0.00017281,-0.12716089,-0.00703925,-0.00945
 697,0.00708426,0.02178549,-0.00966911,-0.00507555,-0.00079163,-0.00436
 233,-0.00027654,0.00032287,0.00075231,0.05421315,-0.01586360,0.0207693
 2,-0.02879789,0.03563029,-0.02140878,-0.00015247,0.00085157,0.00000781
 ,-0.05573207,-0.04754554,0.00506850,-0.28250862,0.08192523,-0.09077557
 ,0.00059300,-0.00178540,-0.00034704,0.63646251,-0.00386600,-0.00127307
 ,0.00060177,-0.00010522,0.00031351,0.00005047,0.04397990,-0.24912461,0
 .09482555,0.00967841,-0.00305415,0.00414244,-0.00258539,0.00134448,-0.
 00185228,0.00015456,-0.00057428,0.00088570,-0.06776312,-0.03865277,0.0
 0196395,0.03395285,-0.03938920,0.02311115,0.00117741,-0.00070308,-0.00
 006411,0.00710725,0.05999659,-0.02138209,0.00926043,-0.13428635,0.0302
 9433,0.02416192,-0.00610868,0.01034795,0.03066445,0.55839644,0.0015876
 4,0.00021100,-0.00055655,-0.00011137,-0.00004762,-0.00025056,-0.032437
 86,0.08066829,-0.11126799,-0.00624798,0.00847489,-0.00345828,-0.000911
 90,-0.00126241,0.00010299,-0.00003351,0.00034289,-0.00002662,0.0431221
 3,0.01623010,0.00926778,-0.02135175,0.02336054,-0.02340433,-0.00033134
 ,0.00018587,-0.00081189,-0.01924413,-0.03715001,0.01821627,-0.05707509
 ,0.05044031,-0.10645557,-0.01175024,0.00394307,-0.00086245,0.10075917,
 -0.16513062,0.28010657,-0.00009348,0.00004443,-0.00000571,0.00001092,-
 0.00001549,-0.00000814,0.00032470,-0.00039210,0.00067415,0.00000361,0.
 00005608,0.00026742,-0.00002886,-0.00004689,-0.00009467,0.00001726,0.0
 0001667,0.00002906,0.00239471,-0.00033619,-0.00125316,0.00094322,-0.00
 140569,-0.00023734,0.00031016,0.00076545,0.00086328,-0.28289268,0.0686
 5813,-0.09512775,-0.01616484,0.00983913,-0.00980519,0.00050645,0.00018
 873,0.00114745,-0.00161543,-0.00454760,-0.00037584,0.29752148,0.000141
 58,0.00005407,-0.00002200,0.00000994,-0.00000584,0.00000375,-0.0005578
 6,-0.00127243,-0.00018519,0.00003303,-0.00026924,-0.00025545,-0.000009
 20,0.00015948,-0.00007889,-0.00005292,-0.00005204,-0.00002570,-0.00073
 128,-0.00349596,0.00488797,0.02623159,-0.00208249,0.00982984,0.0000554
 4,0.00007933,-0.00190158,0.06852467,-0.07868614,0.03561298,-0.01776645
 ,0.01003698,-0.00726386,0.00094974,-0.00007730,-0.00156601,-0.00420570
 ,-0.00070179,0.00268832,-0.07309470,0.07649318,0.00008880,0.00004768,0
 .00006187,0.00003896,0.00003704,0.00001241,0.00050435,-0.00063174,-0.0
 0105463,0.00025073,-0.00041181,-0.00076698,-0.00012486,0.00017215,-0.0
 0008042,-0.00001112,-0.00000020,0.00005405,-0.00100549,0.00483034,0.00
 534829,-0.01273169,0.00242991,-0.00021928,0.00123387,-0.00165353,-0.00
 319020,-0.09520393,0.03558787,-0.08003024,0.00272627,0.00001760,0.0050
 0754,0.00080098,-0.00173954,-0.00311884,-0.00054184,0.00261305,0.00624
 408,0.10430703,-0.04171772,0.07234340,-0.00004192,0.00080925,-0.000086
 65,0.00000142,-0.00019958,-0.00001404,0.00563258,-0.00297634,0.0022958
 4,0.00020841,0.00159144,0.00062216,0.00005531,-0.00028942,-0.00027983,
 -0.00001011,0.00011204,-0.00001395,0.00272899,0.00293211,-0.00307603,-
 0.00180413,-0.00041390,-0.00015903,0.00004366,0.00008446,0.00036395,-0
 .00089678,0.00184969,-0.00294197,-0.02785594,-0.02111203,0.00084876,0.
 00060368,-0.00086465,0.00157434,-0.16435629,-0.06010811,0.00458807,-0.
 00065905,-0.00056570,0.00021097,0.52648746,0.00107447,-0.00368575,0.00
 103636,-0.00023209,-0.00032639,0.00001410,-0.02542159,-0.01863079,0.00
 380145,0.00194824,-0.00107504,-0.00066066,-0.00064769,0.00032844,-0.00
 020525,-0.00006406,-0.00008254,0.00007214,0.00287856,-0.00189707,0.004
 54047,-0.00031312,0.00042985,-0.00079021,-0.00002209,-0.00007363,-0.00
 029124,0.00137098,-0.00017343,0.00338581,0.00230255,0.00696237,-0.0000
 0067,0.00242652,-0.00004606,-0.00078931,-0.06965931,-0.13679983,0.0135
 6942,0.00062798,0.00039251,0.00002212,-0.04731690,0.55382849,-0.000287
 38,0.00113743,-0.00155553,0.00023520,0.00050903,0.00001278,0.01069021,
 0.00864421,0.00053297,0.00073276,0.00096895,-0.00124471,-0.00039841,0.
 00029515,-0.00047697,0.00005398,0.00004658,0.00008584,-0.00238048,0.00
 393752,0.00385644,0.00012036,-0.00018734,-0.00089773,0.00027642,-0.000
 42256,-0.00080864,-0.00373940,0.00358160,0.00595817,-0.00948888,-0.005
 38141,0.00767580,0.00042383,-0.00230729,-0.00351283,0.00625093,0.01308
 092,-0.07556504,-0.00042990,-0.00044530,-0.00014892,0.01819772,-0.0082
 1523,0.55374501,-0.00023533,-0.00019698,0.00037427,0.00004245,0.000170
 86,-0.00000110,0.00134290,0.00214199,0.00014916,0.00069359,-0.00081968
 ,-0.00092694,-0.00003934,0.00004352,0.00034097,-0.00003051,-0.00012983
 ,-0.00003196,-0.00090389,0.00019763,0.00073776,0.00024836,-0.00022874,
 0.00003145,0.00006562,-0.00013154,-0.00014122,-0.00102015,0.00083746,0
 .00077514,-0.00229210,-0.00329258,0.00069752,0.00021605,-0.00038004,-0
 .00045102,-0.01493090,-0.00254760,-0.02187956,-0.00026252,-0.00018032,
 -0.00000465,-0.10397903,-0.01521504,-0.11357921,0.11563609,0.00042210,
 0.00087601,0.00020326,0.00026609,-0.00025551,-0.00004843,-0.00010784,0
 .00083944,0.00064333,-0.00144122,-0.00268527,0.00023934,0.00042305,0.0
 0036759,-0.00031183,-0.00012577,-0.00002349,-0.00002137,0.00018651,0.0
 0043294,0.00025674,-0.00037977,-0.00018512,-0.00019446,0.00003755,0.00
 002066,0.00004389,-0.00042766,0.00040845,0.00032353,-0.00063810,-0.001
 96223,0.00069770,-0.00021440,0.00023305,-0.00015621,-0.00907460,-0.002
 23793,-0.01865511,-0.00016089,-0.00009856,0.00004332,-0.01537057,-0.05
 111866,-0.02501023,0.01910365,0.05226518,0.00049393,0.00151153,0.00002
 395,-0.00000783,-0.00006643,0.00005762,0.00081930,0.00086316,0.0006024
 0,-0.00145260,-0.00069476,0.00056486,0.00023717,-0.00018525,-0.0002376
 1,-0.00001365,0.00002432,-0.00003045,-0.00098946,-0.00040361,0.0001532
 5,0.00058573,-0.00049930,0.00042619,0.00002602,-0.00006284,-0.00005578
 ,0.00061200,0.00054978,-0.00029270,-0.00016520,-0.00008854,-0.00009997
 ,0.00018834,-0.00008775,0.00007229,0.00380178,0.00086164,0.00590212,0.
 00003322,0.00000713,-0.00002627,-0.11357874,-0.02546004,-0.24968032,0.
 12303014,0.02671383,0.26963499,-0.00082608,0.00069406,-0.00078046,0.00
 007631,0.00029378,-0.00014991,0.00113746,0.00129246,-0.00076110,-0.000
 38626,0.00014811,0.00041042,0.00015844,-0.00016325,0.00025510,0.000036
 03,0.00001385,-0.00005763,-0.00095602,-0.00062099,-0.00096169,0.000310
 47,-0.00035714,0.00040708,-0.00003094,0.00002917,0.00015712,-0.0000070
 0,-0.00024069,-0.00150816,-0.00127095,-0.00238937,0.00028971,-0.000241
 28,0.00027940,0.00068309,-0.01903098,0.00702494,0.01566848,-0.00019376
 ,-0.00007707,0.00005016,-0.16095875,0.06593199,0.12143050,0.01068568,-
 0.00590182,-0.01087320,0.17766180,0.00143929,-0.00120268,0.00017757,0.
 00022634,-0.00010239,-0.00014350,-0.00004035,-0.00089682,0.00016946,-0
 .00192310,-0.00027593,0.00152873,0.00046949,0.00003692,-0.00044858,-0.
 00006887,0.00001917,-0.00007497,0.00076480,0.00003922,-0.00082608,-0.0
 0071503,0.00005141,-0.00009772,0.00002014,0.00003113,0.00003594,-0.000
 09958,-0.00055669,-0.00058888,-0.00026036,-0.00105149,0.00019679,-0.00
 014177,0.00018270,-0.00006947,-0.01474427,0.00913853,0.01536713,-0.000
 12026,-0.00006507,0.00001113,0.06435229,-0.08168081,-0.06526160,0.0021
 8587,-0.00199161,-0.00164624,-0.06864767,0.08766048,-0.00094700,-0.001
 19966,0.00071071,-0.00017403,-0.00004046,0.00002120,0.00028496,0.00074
 522,0.00075709,0.00228426,0.00050937,-0.00168406,-0.00039619,-0.000101
 51,0.00064048,0.00002561,-0.00004424,0.00004737,-0.00034947,0.00008158
 ,0.00009790,0.00024155,-0.00030502,0.00013411,-0.00000973,0.00000470,0
 .00000801,0.00028251,0.00035422,-0.00044453,-0.00113377,-0.00015441,-0
 .00062461,-0.00005319,0.00006591,0.00017397,0.00084962,0.00040383,-0.0
 0057673,-0.00001392,0.00004747,0.00005706,0.11870752,-0.06489472,-0.16
 408349,0.01893814,-0.01071489,-0.01944648,-0.13000708,0.07165537,0.176
 00365,0.00016004,0.00141900,-0.00050252,0.00017718,0.00009908,-0.00002
 813,-0.00401086,-0.00264425,-0.00009931,-0.00169690,-0.00071170,0.0006
 3140,0.00034607,0.00012662,-0.00027605,-0.00004131,-0.00001631,-0.0000
 4090,0.00044008,-0.00096311,0.00079729,-0.00006015,0.00004849,-0.00009
 020,-0.00002057,0.00006065,-0.00000506,0.00017269,-0.00014902,0.000042
 44,0.00091035,-0.00156573,0.00099571,-0.00069032,0.00018732,-0.0003151
 0,0.00792559,-0.02441550,0.00865819,0.00004816,0.00004854,0.00000199,-
 0.07572094,0.08131694,-0.02867458,-0.00529412,0.01337151,-0.00273767,-
 0.00617601,0.01731206,-0.00856223,0.08384605,0.00023745,-0.00002117,0.
 00028572,-0.00009965,-0.00006933,0.00002196,-0.00385832,-0.00152669,-0
 .00003770,-0.00038199,0.00021956,-0.00079082,0.00015836,-0.00008876,0.
 00041048,-0.00000922,0.00000093,-0.00008485,0.00099375,-0.00040375,0.0
 0080075,-0.00027117,0.00033566,-0.00023191,-0.00005693,0.00005063,-0.0
 0007517,-0.00041801,0.00000870,0.00004161,0.00271810,0.00090471,0.0006
 7545,-0.00082851,0.00070396,-0.00063120,0.00746309,-0.01808058,0.00620
 582,-0.00001131,-0.00002669,-0.00002788,0.07683634,-0.26573500,0.07448
 057,-0.00154661,0.00507280,-0.00128904,0.00270546,-0.00935309,0.003549
 43,-0.08331536,0.28819307,0.00001539,0.00023981,0.00059353,0.00001632,
 -0.00016633,0.00006817,0.00078383,0.00085475,0.00121499,0.00015423,-0.
 00089959,-0.00022978,-0.00001274,0.00009481,-0.00002303,-0.00003838,-0
 .00001085,0.00004172,-0.00011014,0.00030729,0.00028660,-0.00008560,-0.
 00004673,0.00004148,0.00002132,0.00000970,0.00004747,0.00022535,-0.000
 18135,-0.00025715,-0.00088247,-0.00078667,0.00007215,-0.00013234,-0.00
 008743,0.00052684,-0.00064298,0.00306746,-0.00319474,0.00001642,-0.000
 00742,-0.00003021,-0.02725246,0.07492010,-0.07381092,-0.00805269,0.025
 94386,-0.00756881,0.00569776,-0.02002811,0.00822606,0.03017702,-0.0832
 2949,0.07413273,-0.00031458,0.00032812,0.00033307,-0.00003515,-0.00014
 322,-0.00008637,0.00589256,-0.02184299,0.01177872,-0.00062392,-0.00254
 916,-0.00035922,-0.00160488,-0.00098133,0.00056721,0.00044833,0.000458
 13,-0.00020634,-0.08869273,0.00605733,-0.00671097,0.00015853,0.0275240
 6,-0.01504806,0.00028269,0.00201587,0.00113622,-0.00391250,-0.00043674
 ,-0.00412080,-0.00053301,0.00003508,0.00008684,0.00011490,0.00013385,0
 .00029517,-0.00391619,-0.00264861,-0.00060768,-0.00015138,0.00125797,-
 0.00051142,0.00056396,-0.00097249,0.00048465,0.00003176,0.00002079,-0.
 00003432,-0.00000374,0.00000551,0.00002551,-0.00031257,-0.00030084,0.0
 0007784,0.59221857,0.00046764,-0.00029080,0.00041895,0.00017603,0.0000
 7820,-0.00008705,0.00021478,-0.01933142,0.01043353,-0.00027363,0.00148
 039,-0.00240454,-0.00225767,-0.00312545,-0.00066815,-0.00034229,0.0007
 0807,0.00010760,0.00953685,-0.18921134,0.05756779,0.00448633,-0.013489
 66,0.00901019,-0.00154695,0.00052729,-0.00145913,0.00002364,0.00219564
 ,0.00122139,0.00043829,-0.00063069,-0.00022485,0.00003338,-0.00008833,
 -0.00011839,-0.00332944,0.00218688,0.00083834,-0.00015762,0.00002725,0
 .00012334,0.00034427,-0.00035292,0.00033739,0.00002523,0.00006020,0.00
 000638,0.00000827,0.00001938,-0.00000818,-0.00010703,-0.00011294,-0.00
 002198,0.00489820,0.50590074,0.00030941,0.00002872,0.00030168,0.000152
 14,0.00015392,0.00004935,0.00280801,0.00309846,0.00195996,0.00060685,-
 0.00059122,-0.00306316,-0.00084708,-0.00104848,-0.00110712,-0.00150268
 ,-0.00070924,0.00053183,-0.00898251,0.05028591,-0.09668714,-0.00350070
 ,0.01526352,-0.00193485,0.00106775,-0.00124854,-0.00278375,-0.00265953
 ,0.00095703,0.00586434,-0.00004796,0.00060972,-0.00116482,0.00026165,-
 0.00044359,-0.00082857,-0.00203232,0.00088457,0.00716301,0.00007078,0.
 00018810,-0.00022707,0.00007727,-0.00017110,0.00010872,-0.00002685,0.0
 0000137,-0.00002440,-0.00000304,0.00000634,-0.00000397,-0.00003010,-0.
 00012984,-0.00011051,0.00764635,0.02738651,0.52656592,0.00023818,0.000
 23560,0.00000965,-0.00002135,0.00000194,-0.00004535,0.00051892,-0.0015
 3748,0.00044303,-0.00025184,-0.00038472,-0.00024157,-0.00141135,-0.001
 84313,-0.00060588,-0.00004925,0.00025488,0.00012633,0.00007431,-0.0005
 6817,-0.00130235,-0.00003298,0.00106906,-0.00012714,0.00038888,0.00004
 132,0.00025912,-0.00014575,-0.00045265,0.00004359,0.00058492,-0.000054
 28,0.00011721,0.00000856,0.00009470,0.00011202,-0.00008496,0.00049694,
 -0.00078731,-0.00001593,0.00006121,0.00000439,-0.00001810,0.00001041,0
 .00002261,0.00001553,0.00001889,0.00000652,0.00002049,0.00000983,0.000
 00056,0.00000773,0.00001372,0.00000423,-0.26471399,0.10192319,0.041841
 78,0.28645036,0.00026241,0.00042526,-0.00036482,-0.00019953,-0.0000886
 2,0.00000319,0.00029686,0.00260527,-0.00004387,-0.00115498,-0.00342243
 ,0.00051925,-0.00003702,0.00118526,-0.00008664,0.00003952,-0.00065818,
 -0.00054279,0.02672679,-0.01120451,-0.00535414,-0.00126192,-0.00453807
 ,0.00150765,0.00025755,-0.00006231,-0.00018368,0.00094086,0.00067056,0
 .00095481,-0.00025452,-0.00026897,-0.00012566,-0.00006083,-0.00001556,
 -0.00006857,0.00011672,0.00005017,0.00060378,0.00004473,-0.00032959,0.
 00018298,-0.00000628,0.00006651,-0.00000848,-0.00002661,-0.00004275,-0
 .00002901,-0.00001175,-0.00002317,0.00002994,0.00000910,0.00002985,-0.
 00002049,0.09995412,-0.09554004,-0.01928131,-0.10952071,0.10356907,0.0
 0017208,-0.00009971,-0.00058563,-0.00006398,-0.00002837,0.00010560,-0.
 00045439,-0.00076867,0.00022392,0.00015301,-0.00078246,0.00233358,0.00
 031903,0.00144722,-0.00064881,0.00027925,-0.00098692,-0.00059980,-0.01
 530425,0.00684828,0.00067759,0.00024170,0.00255687,-0.00029428,0.00010
 446,0.00016082,0.00015008,-0.00040654,0.00056999,-0.00085359,-0.000413
 70,-0.00017286,0.00004869,0.00000656,0.00004452,0.00004197,0.00016349,
 -0.00032399,-0.00014252,-0.00002318,0.00017067,-0.00016278,0.00003621,
 -0.00000915,0.00000207,-0.00000152,-0.00000619,-0.00000950,0.00001078,
 0.00001039,0.00000319,-0.00001149,0.00000030,-0.00000052,0.04165930,-0
 .01995951,-0.05217237,-0.04491215,0.01831652,0.05525172,0.00031272,0.0
 0002393,-0.00053704,-0.00008618,0.00005336,0.00008705,-0.00021756,-0.0
 0206085,0.00031884,0.00007036,-0.00042512,0.00185385,0.00045112,0.0010
 4850,-0.00093887,-0.00122341,-0.00151953,-0.00026807,0.00006590,-0.000
 22457,-0.00284849,-0.00084408,0.00211754,-0.00054490,-0.00003998,-0.00
 017036,-0.00036651,-0.00066961,-0.00106661,0.00095635,0.00128259,0.000
 32337,0.00021139,0.00001793,-0.00000458,-0.00000965,-0.00073586,0.0008
 7927,-0.00097423,-0.00001015,-0.00002207,-0.00008212,-0.00002606,-0.00
 001631,0.00003996,0.00000868,-0.00001975,0.00000933,0.00001337,-0.0000
 1861,0.00001617,-0.00001749,-0.00000467,-0.00000124,-0.04992818,0.0022
 6836,0.03625729,-0.00320115,0.00164084,0.02960937,0.05086704,-0.000205
 04,0.00017674,-0.00026653,-0.00010725,-0.00005022,-0.00000413,-0.00004
 679,-0.00028731,-0.00014539,0.00042494,-0.00059492,0.00157649,-0.00009
 376,0.00005485,-0.00074468,-0.00137687,-0.00010957,-0.00014348,-0.0035
 6362,0.00128874,0.03123900,-0.00080237,-0.00081554,-0.00022614,0.00018
 044,0.00025670,0.00038534,0.00023621,-0.00082753,-0.00095487,0.0001185
 0,-0.00029378,0.00032616,-0.00003109,0.00006764,0.00010644,0.00049007,
 -0.00071360,-0.00126399,0.00003556,-0.00008309,0.00010028,0.00005595,-
 0.00002355,0.00003718,-0.00001617,0.00000423,-0.00001149,-0.00001609,-
 0.00000160,0.00000847,-0.00001433,0.00000509,0.00003986,0.00180858,-0.
 04528610,-0.01440179,0.00065628,-0.00169413,-0.01331070,-0.00171152,0.
 05059267,0.00016562,-0.00012623,0.00044985,0.00006412,0.00003128,-0.00
 008498,-0.00066752,-0.00027713,0.00064145,-0.00064301,0.00054041,-0.00
 196616,-0.00075308,-0.00107939,0.00119300,0.00081337,0.00086402,0.0002
 5370,0.00082575,0.00196260,-0.01073076,0.00067565,0.00103028,0.0003330
 0,0.00010027,-0.00017155,-0.00058209,-0.00027154,0.00050179,0.00054701
 ,0.00037163,-0.00000533,-0.00004128,0.00004022,-0.00002782,-0.00011142
 ,-0.00048877,0.00091715,0.00002389,-0.00003581,0.00008698,-0.00005449,
 -0.00005396,0.00002364,-0.00002397,0.00002813,0.00001728,0.00002471,0.
 00001919,0.00001029,-0.00000849,0.00001884,0.00001663,-0.00001725,0.03
 622237,-0.01927223,-0.30060513,0.00025835,-0.00086246,-0.00497828,-0.0
 3888484,0.01695293,0.32781203,-0.00027758,-0.00011401,0.00028443,0.000
 10363,0.00002326,-0.00003341,0.00061413,-0.00027997,-0.00036451,0.0005
 3034,0.00118350,-0.00077856,-0.00056124,-0.00120312,-0.00025717,-0.000
 21373,0.00030826,0.00039386,0.00087208,0.00169054,0.00228600,0.0002597
 3,0.00235726,-0.00060942,0.00023467,0.00011717,-0.00055423,0.00009060,
 -0.00010652,0.00076278,0.00016034,0.00023698,-0.00003518,0.00005797,-0
 .00008428,-0.00009543,0.00002424,0.00004883,-0.00026389,0.00000742,-0.
 00005044,-0.00000138,0.00000162,-0.00000793,0.00001912,0.00000117,0.00
 001223,0.00000917,-0.00001830,-0.00000575,-0.00000978,0.00000732,-0.00
 002368,0.00002132,-0.18496846,-0.11682982,-0.07146651,-0.01836124,-0.0
 1775535,-0.01116404,0.00391000,0.00397837,0.00219500,0.19752528,-0.000
 23101,0.00016857,-0.00008431,-0.00005106,-0.00002330,0.00002214,0.0019
 6617,-0.00421052,0.00211566,0.00073477,-0.00092785,0.00047202,0.000315
 23,0.00101551,-0.00002555,0.00015581,-0.00029841,-0.00001250,-0.021359
 81,-0.01838828,-0.01043906,-0.00222672,0.00147258,-0.00044869,0.001337
 84,-0.00013934,0.00008813,-0.00005755,-0.00013094,0.00034338,0.0004488
 6,-0.00003237,0.00002226,0.00010698,0.00001310,-0.00002539,-0.00158478
 ,0.00027332,0.00037998,0.00001187,0.00000345,-0.00003638,0.00025563,-0
 .00030669,0.00018289,0.00000553,0.00002058,-0.00001346,0.00000435,0.00
 002242,0.00000759,-0.00009698,-0.00010697,0.00000878,-0.11462221,-0.14
 572436,-0.06083905,0.00947319,0.00928639,0.00632295,-0.00109060,-0.001
 66569,-0.00113312,0.12650448,0.15967880,-0.00007198,-0.00005947,0.0002
 8665,0.00005785,-0.00001205,-0.00005291,-0.00090160,0.00247549,-0.0004
 4071,-0.00034871,0.00025800,-0.00096843,-0.00040920,-0.00060409,0.0006
 5775,0.00057282,0.00065824,0.00023751,0.01195384,0.01080486,0.00435918
 ,0.00051642,0.00055160,0.00022081,-0.00013863,-0.00007575,0.00021041,0
 .00010394,-0.00028884,0.00008608,0.00037671,0.00007576,0.00013969,-0.0
 0001336,0.00000156,-0.00000393,0.00039641,0.00070115,-0.00045343,0.000
 00180,-0.00005409,-0.00001836,-0.00006613,0.00010199,-0.00016874,-0.00
 000596,-0.00000873,0.00000992,0.00002290,0.00001601,-0.00000845,0.0000
 5044,0.00003917,-0.00000883,-0.07262808,-0.06322740,-0.08183194,0.0047
 7236,0.00485381,0.00160968,-0.02390364,-0.01929897,-0.01207435,0.07966
 182,0.06309173,0.08821240\\0.00000025,0.00000192,0.00000013,0.00000045
 ,0.00000247,0.,0.00000002,0.00000015,0.00000006,0.00000039,0.00000102,
 -0.00000006,0.00000070,0.00000109,-0.00000007,0.00000065,0.00000040,-0
 .00000009,0.00000067,-0.00000064,-0.00000016,0.00000038,-0.00000144,-0
 .00000006,0.00000086,-0.00000205,-0.00000021,-0.00000052,-0.00000146,0
 .00000003,-0.00000107,-0.00000075,0.00000008,-0.00000177,-0.00000074,0
 .00000027,-0.00000089,0.00000017,0.00000019,-0.00000066,-0.00000212,0.
 00000006,-0.00000151,0.00000106,0.00000014,-0.00000162,0.00000121,0.00
 000030,-0.00000122,0.00000156,0.00000026,-0.00000217,0.00000072,0.0000
 0043,0.00000152,-0.00000071,-0.00000021,0.00000186,0.00000010,-0.00000
 035,0.00000156,-0.00000084,-0.00000038,0.00000209,-0.00000110,-0.00000
 038\\\@
 The archive entry for this job was punched.


 THE MORE POWERFUL THE METHOD, THE MORE CATASTROPHIC THE ERRORS.
     -- M.D. KAMEN
 Job cpu time:       0 days  1 hours 20 minutes 26.5 seconds.
 Elapsed time:       0 days  0 hours  2 minutes 33.8 seconds.
 File lengths (MBytes):  RWF=    192 Int=      0 D2E=      0 Chk=     11 Scr=      1
 Normal termination of Gaussian 16 at Mon May  5 08:03:08 2025.
